+ 0.5 1 2 cbr 1000 ------- 1 1.0 3.1 0 0
- 0.5 1 2 cbr 1000 ------- 1 1.0 3.1 0 0
+ 0.5 0 2 tcp 40 ------- 2 0.0 3.0 0 1
- 0.5 0 2 tcp 40 ------- 2 0.0 3.0 0 1
+ 0.508 1 2 cbr 1000 ------- 1 1.0 3.1 1 2
- 0.508 1 2 cbr 1000 ------- 1 1.0 3.1 1 2
r 0.51016 0 2 tcp 40 ------- 2 0.0 3.0 0 1
+ 0.51016 2 3 tcp 40 ------- 2 0.0 3.0 0 1
- 0.51016 2 3 tcp 40 ------- 2 0.0 3.0 0 1
r 0.514 1 2 cbr 1000 ------- 1 1.0 3.1 0 0
+ 0.514 2 3 cbr 1000 ------- 1 1.0 3.1 0 0
- 0.514 2 3 cbr 1000 ------- 1 1.0 3.1 0 0
+ 0.516 1 2 cbr 1000 ------- 1 1.0 3.1 2 3
- 0.516 1 2 cbr 1000 ------- 1 1.0 3.1 2 3
r 0.522 1 2 cbr 1000 ------- 1 1.0 3.1 1 2
+ 0.522 2 3 cbr 1000 ------- 1 1.0 3.1 1 2
- 0.522 2 3 cbr 1000 ------- 1 1.0 3.1 1 2
+ 0.524 1 2 cbr 1000 ------- 1 1.0 3.1 3 4
- 0.524 1 2 cbr 1000 ------- 1 1.0 3.1 3 4
r 0.53 1 2 cbr 1000 ------- 1 1.0 3.1 2 3
+ 0.53 2 3 cbr 1000 ------- 1 1.0 3.1 2 3
- 0.53 2 3 cbr 1000 ------- 1 1.0 3.1 2 3
r 0.530348 2 3 tcp 40 ------- 2 0.0 3.0 0 1
+ 0.530348 3 2 ack 40 ------- 2 3.0 0.0 0 5
- 0.530348 3 2 ack 40 ------- 2 3.0 0.0 0 5
+ 0.532 1 2 cbr 1000 ------- 1 1.0 3.1 4 6
- 0.532 1 2 cbr 1000 ------- 1 1.0 3.1 4 6
r 0.538 1 2 cbr 1000 ------- 1 1.0 3.1 3 4
+ 0.538 2 3 cbr 1000 ------- 1 1.0 3.1 3 4
- 0.538 2 3 cbr 1000 ------- 1 1.0 3.1 3 4
r 0.538706 2 3 cbr 1000 ------- 1 1.0 3.1 0 0
+ 0.54 1 2 cbr 1000 ------- 1 1.0 3.1 5 7
- 0.54 1 2 cbr 1000 ------- 1 1.0 3.1 5 7
r 0.546 1 2 cbr 1000 ------- 1 1.0 3.1 4 6
+ 0.546 2 3 cbr 1000 ------- 1 1.0 3.1 4 6
- 0.546 2 3 cbr 1000 ------- 1 1.0 3.1 4 6
r 0.546706 2 3 cbr 1000 ------- 1 1.0 3.1 1 2
+ 0.548 1 2 cbr 1000 ------- 1 1.0 3.1 6 8
- 0.548 1 2 cbr 1000 ------- 1 1.0 3.1 6 8
r 0.550536 3 2 ack 40 ------- 2 3.0 0.0 0 5
+ 0.550536 2 0 ack 40 ------- 2 3.0 0.0 0 5
- 0.550536 2 0 ack 40 ------- 2 3.0 0.0 0 5
r 0.554 1 2 cbr 1000 ------- 1 1.0 3.1 5 7
+ 0.554 2 3 cbr 1000 ------- 1 1.0 3.1 5 7
- 0.554 2 3 cbr 1000 ------- 1 1.0 3.1 5 7
r 0.554706 2 3 cbr 1000 ------- 1 1.0 3.1 2 3
+ 0.556 1 2 cbr 1000 ------- 1 1.0 3.1 7 9
- 0.556 1 2 cbr 1000 ------- 1 1.0 3.1 7 9
r 0.560696 2 0 ack 40 ------- 2 3.0 0.0 0 5
+ 0.560696 0 2 tcp 1040 ------- 2 0.0 3.0 1 10
- 0.560696 0 2 tcp 1040 ------- 2 0.0 3.0 1 10
+ 0.560696 0 2 tcp 1040 ------- 2 0.0 3.0 2 11
r 0.562 1 2 cbr 1000 ------- 1 1.0 3.1 6 8
+ 0.562 2 3 cbr 1000 ------- 1 1.0 3.1 6 8
- 0.562 2 3 cbr 1000 ------- 1 1.0 3.1 6 8
r 0.562706 2 3 cbr 1000 ------- 1 1.0 3.1 3 4
+ 0.564 1 2 cbr 1000 ------- 1 1.0 3.1 8 12
- 0.564 1 2 cbr 1000 ------- 1 1.0 3.1 8 12
- 0.564856 0 2 tcp 1040 ------- 2 0.0 3.0 2 11
r 0.57 1 2 cbr 1000 ------- 1 1.0 3.1 7 9
+ 0.57 2 3 cbr 1000 ------- 1 1.0 3.1 7 9
- 0.57 2 3 cbr 1000 ------- 1 1.0 3.1 7 9
r 0.570706 2 3 cbr 1000 ------- 1 1.0 3.1 4 6
+ 0.572 1 2 cbr 1000 ------- 1 1.0 3.1 9 13
- 0.572 1 2 cbr 1000 ------- 1 1.0 3.1 9 13
r 0.574856 0 2 tcp 1040 ------- 2 0.0 3.0 1 10
+ 0.574856 2 3 tcp 1040 ------- 2 0.0 3.0 1 10
- 0.574856 2 3 tcp 1040 ------- 2 0.0 3.0 1 10
r 0.578 1 2 cbr 1000 ------- 1 1.0 3.1 8 12
+ 0.578 2 3 cbr 1000 ------- 1 1.0 3.1 8 12
r 0.578706 2 3 cbr 1000 ------- 1 1.0 3.1 5 7
r 0.579016 0 2 tcp 1040 ------- 2 0.0 3.0 2 11
+ 0.579016 2 3 tcp 1040 ------- 2 0.0 3.0 2 11
- 0.579751 2 3 cbr 1000 ------- 1 1.0 3.1 8 12
+ 0.58 1 2 cbr 1000 ------- 1 1.0 3.1 10 14
- 0.58 1 2 cbr 1000 ------- 1 1.0 3.1 10 14
- 0.584456 2 3 tcp 1040 ------- 2 0.0 3.0 2 11
r 0.586 1 2 cbr 1000 ------- 1 1.0 3.1 9 13
+ 0.586 2 3 cbr 1000 ------- 1 1.0 3.1 9 13
r 0.586706 2 3 cbr 1000 ------- 1 1.0 3.1 6 8
+ 0.588 1 2 cbr 1000 ------- 1 1.0 3.1 11 15
- 0.588 1 2 cbr 1000 ------- 1 1.0 3.1 11 15
- 0.589351 2 3 cbr 1000 ------- 1 1.0 3.1 9 13
r 0.594 1 2 cbr 1000 ------- 1 1.0 3.1 10 14
+ 0.594 2 3 cbr 1000 ------- 1 1.0 3.1 10 14
- 0.594056 2 3 cbr 1000 ------- 1 1.0 3.1 10 14
r 0.594706 2 3 cbr 1000 ------- 1 1.0 3.1 7 9
+ 0.596 1 2 cbr 1000 ------- 1 1.0 3.1 12 16
- 0.596 1 2 cbr 1000 ------- 1 1.0 3.1 12 16
r 0.599751 2 3 tcp 1040 ------- 2 0.0 3.0 1 10
+ 0.599751 3 2 ack 40 ------- 2 3.0 0.0 1 17
- 0.599751 3 2 ack 40 ------- 2 3.0 0.0 1 17
r 0.602 1 2 cbr 1000 ------- 1 1.0 3.1 11 15
+ 0.602 2 3 cbr 1000 ------- 1 1.0 3.1 11 15
- 0.602 2 3 cbr 1000 ------- 1 1.0 3.1 11 15
+ 0.604 1 2 cbr 1000 ------- 1 1.0 3.1 13 18
- 0.604 1 2 cbr 1000 ------- 1 1.0 3.1 13 18
r 0.604456 2 3 cbr 1000 ------- 1 1.0 3.1 8 12
r 0.609351 2 3 tcp 1040 ------- 2 0.0 3.0 2 11
+ 0.609351 3 2 ack 40 ------- 2 3.0 0.0 2 19
- 0.609351 3 2 ack 40 ------- 2 3.0 0.0 2 19
r 0.61 1 2 cbr 1000 ------- 1 1.0 3.1 12 16
+ 0.61 2 3 cbr 1000 ------- 1 1.0 3.1 12 16
- 0.61 2 3 cbr 1000 ------- 1 1.0 3.1 12 16
+ 0.612 1 2 cbr 1000 ------- 1 1.0 3.1 14 20
- 0.612 1 2 cbr 1000 ------- 1 1.0 3.1 14 20
r 0.614056 2 3 cbr 1000 ------- 1 1.0 3.1 9 13
r 0.618 1 2 cbr 1000 ------- 1 1.0 3.1 13 18
+ 0.618 2 3 cbr 1000 ------- 1 1.0 3.1 13 18
- 0.618 2 3 cbr 1000 ------- 1 1.0 3.1 13 18
r 0.618762 2 3 cbr 1000 ------- 1 1.0 3.1 10 14
r 0.619939 3 2 ack 40 ------- 2 3.0 0.0 1 17
+ 0.619939 2 0 ack 40 ------- 2 3.0 0.0 1 17
- 0.619939 2 0 ack 40 ------- 2 3.0 0.0 1 17
+ 0.62 1 2 cbr 1000 ------- 1 1.0 3.1 15 21
- 0.62 1 2 cbr 1000 ------- 1 1.0 3.1 15 21
r 0.626 1 2 cbr 1000 ------- 1 1.0 3.1 14 20
+ 0.626 2 3 cbr 1000 ------- 1 1.0 3.1 14 20
- 0.626 2 3 cbr 1000 ------- 1 1.0 3.1 14 20
r 0.626706 2 3 cbr 1000 ------- 1 1.0 3.1 11 15
+ 0.628 1 2 cbr 1000 ------- 1 1.0 3.1 16 22
- 0.628 1 2 cbr 1000 ------- 1 1.0 3.1 16 22
r 0.629539 3 2 ack 40 ------- 2 3.0 0.0 2 19
+ 0.629539 2 0 ack 40 ------- 2 3.0 0.0 2 19
- 0.629539 2 0 ack 40 ------- 2 3.0 0.0 2 19
r 0.630099 2 0 ack 40 ------- 2 3.0 0.0 1 17
+ 0.630099 0 2 tcp 1040 ------- 2 0.0 3.0 3 23
- 0.630099 0 2 tcp 1040 ------- 2 0.0 3.0 3 23
+ 0.630099 0 2 tcp 1040 ------- 2 0.0 3.0 4 24
r 0.634 1 2 cbr 1000 ------- 1 1.0 3.1 15 21
+ 0.634 2 3 cbr 1000 ------- 1 1.0 3.1 15 21
- 0.634 2 3 cbr 1000 ------- 1 1.0 3.1 15 21
- 0.634259 0 2 tcp 1040 ------- 2 0.0 3.0 4 24
r 0.634706 2 3 cbr 1000 ------- 1 1.0 3.1 12 16
+ 0.636 1 2 cbr 1000 ------- 1 1.0 3.1 17 25
- 0.636 1 2 cbr 1000 ------- 1 1.0 3.1 17 25
r 0.639699 2 0 ack 40 ------- 2 3.0 0.0 2 19
+ 0.639699 0 2 tcp 1040 ------- 2 0.0 3.0 5 26
- 0.639699 0 2 tcp 1040 ------- 2 0.0 3.0 5 26
+ 0.639699 0 2 tcp 1040 ------- 2 0.0 3.0 6 27
r 0.642 1 2 cbr 1000 ------- 1 1.0 3.1 16 22
+ 0.642 2 3 cbr 1000 ------- 1 1.0 3.1 16 22
- 0.642 2 3 cbr 1000 ------- 1 1.0 3.1 16 22
r 0.642706 2 3 cbr 1000 ------- 1 1.0 3.1 13 18
- 0.643859 0 2 tcp 1040 ------- 2 0.0 3.0 6 27
+ 0.644 1 2 cbr 1000 ------- 1 1.0 3.1 18 28
- 0.644 1 2 cbr 1000 ------- 1 1.0 3.1 18 28
r 0.644259 0 2 tcp 1040 ------- 2 0.0 3.0 3 23
+ 0.644259 2 3 tcp 1040 ------- 2 0.0 3.0 3 23
- 0.646706 2 3 tcp 1040 ------- 2 0.0 3.0 3 23
r 0.648419 0 2 tcp 1040 ------- 2 0.0 3.0 4 24
+ 0.648419 2 3 tcp 1040 ------- 2 0.0 3.0 4 24
r 0.65 1 2 cbr 1000 ------- 1 1.0 3.1 17 25
+ 0.65 2 3 cbr 1000 ------- 1 1.0 3.1 17 25
r 0.650706 2 3 cbr 1000 ------- 1 1.0 3.1 14 20
- 0.6516 2 3 tcp 1040 ------- 2 0.0 3.0 4 24
+ 0.652 1 2 cbr 1000 ------- 1 1.0 3.1 19 29
- 0.652 1 2 cbr 1000 ------- 1 1.0 3.1 19 29
r 0.653859 0 2 tcp 1040 ------- 2 0.0 3.0 5 26
+ 0.653859 2 3 tcp 1040 ------- 2 0.0 3.0 5 26
- 0.656494 2 3 cbr 1000 ------- 1 1.0 3.1 17 25
r 0.658 1 2 cbr 1000 ------- 1 1.0 3.1 18 28
+ 0.658 2 3 cbr 1000 ------- 1 1.0 3.1 18 28
r 0.658019 0 2 tcp 1040 ------- 2 0.0 3.0 6 27
+ 0.658019 2 3 tcp 1040 ------- 2 0.0 3.0 6 27
r 0.658706 2 3 cbr 1000 ------- 1 1.0 3.1 15 21
+ 0.66 1 2 cbr 1000 ------- 1 1.0 3.1 20 30
- 0.66 1 2 cbr 1000 ------- 1 1.0 3.1 20 30
- 0.6612 2 3 tcp 1040 ------- 2 0.0 3.0 5 26
r 0.666 1 2 cbr 1000 ------- 1 1.0 3.1 19 29
+ 0.666 2 3 cbr 1000 ------- 1 1.0 3.1 19 29
- 0.666094 2 3 cbr 1000 ------- 1 1.0 3.1 18 28
r 0.666706 2 3 cbr 1000 ------- 1 1.0 3.1 16 22
+ 0.668 1 2 cbr 1000 ------- 1 1.0 3.1 21 31
- 0.668 1 2 cbr 1000 ------- 1 1.0 3.1 21 31
- 0.6708 2 3 tcp 1040 ------- 2 0.0 3.0 6 27
r 0.6716 2 3 tcp 1040 ------- 2 0.0 3.0 3 23
+ 0.6716 3 2 ack 40 ------- 2 3.0 0.0 3 32
- 0.6716 3 2 ack 40 ------- 2 3.0 0.0 3 32
r 0.674 1 2 cbr 1000 ------- 1 1.0 3.1 20 30
+ 0.674 2 3 cbr 1000 ------- 1 1.0 3.1 20 30
- 0.675694 2 3 cbr 1000 ------- 1 1.0 3.1 19 29
+ 0.676 1 2 cbr 1000 ------- 1 1.0 3.1 22 33
- 0.676 1 2 cbr 1000 ------- 1 1.0 3.1 22 33
r 0.676494 2 3 tcp 1040 ------- 2 0.0 3.0 4 24
+ 0.676494 3 2 ack 40 ------- 2 3.0 0.0 4 34
- 0.676494 3 2 ack 40 ------- 2 3.0 0.0 4 34
- 0.6804 2 3 cbr 1000 ------- 1 1.0 3.1 20 30
r 0.6812 2 3 cbr 1000 ------- 1 1.0 3.1 17 25
r 0.682 1 2 cbr 1000 ------- 1 1.0 3.1 21 31
+ 0.682 2 3 cbr 1000 ------- 1 1.0 3.1 21 31
+ 0.684 1 2 cbr 1000 ------- 1 1.0 3.1 23 35
- 0.684 1 2 cbr 1000 ------- 1 1.0 3.1 23 35
- 0.685106 2 3 cbr 1000 ------- 1 1.0 3.1 21 31
r 0.686094 2 3 tcp 1040 ------- 2 0.0 3.0 5 26
+ 0.686094 3 2 ack 40 ------- 2 3.0 0.0 5 36
- 0.686094 3 2 ack 40 ------- 2 3.0 0.0 5 36
r 0.69 1 2 cbr 1000 ------- 1 1.0 3.1 22 33
+ 0.69 2 3 cbr 1000 ------- 1 1.0 3.1 22 33
- 0.69 2 3 cbr 1000 ------- 1 1.0 3.1 22 33
r 0.6908 2 3 cbr 1000 ------- 1 1.0 3.1 18 28
r 0.691788 3 2 ack 40 ------- 2 3.0 0.0 3 32
+ 0.691788 2 0 ack 40 ------- 2 3.0 0.0 3 32
- 0.691788 2 0 ack 40 ------- 2 3.0 0.0 3 32
+ 0.692 1 2 cbr 1000 ------- 1 1.0 3.1 24 37
- 0.692 1 2 cbr 1000 ------- 1 1.0 3.1 24 37
r 0.695694 2 3 tcp 1040 ------- 2 0.0 3.0 6 27
+ 0.695694 3 2 ack 40 ------- 2 3.0 0.0 6 38
- 0.695694 3 2 ack 40 ------- 2 3.0 0.0 6 38
r 0.696682 3 2 ack 40 ------- 2 3.0 0.0 4 34
+ 0.696682 2 0 ack 40 ------- 2 3.0 0.0 4 34
- 0.696682 2 0 ack 40 ------- 2 3.0 0.0 4 34
r 0.698 1 2 cbr 1000 ------- 1 1.0 3.1 23 35
+ 0.698 2 3 cbr 1000 ------- 1 1.0 3.1 23 35
- 0.698 2 3 cbr 1000 ------- 1 1.0 3.1 23 35
+ 0.7 1 2 cbr 1000 ------- 1 1.0 3.1 25 39
- 0.7 1 2 cbr 1000 ------- 1 1.0 3.1 25 39
r 0.7004 2 3 cbr 1000 ------- 1 1.0 3.1 19 29
r 0.701948 2 0 ack 40 ------- 2 3.0 0.0 3 32
+ 0.701948 0 2 tcp 1040 ------- 2 0.0 3.0 7 40
- 0.701948 0 2 tcp 1040 ------- 2 0.0 3.0 7 40
+ 0.701948 0 2 tcp 1040 ------- 2 0.0 3.0 8 41
r 0.705106 2 3 cbr 1000 ------- 1 1.0 3.1 20 30
r 0.706 1 2 cbr 1000 ------- 1 1.0 3.1 24 37
+ 0.706 2 3 cbr 1000 ------- 1 1.0 3.1 24 37
- 0.706 2 3 cbr 1000 ------- 1 1.0 3.1 24 37
- 0.706108 0 2 tcp 1040 ------- 2 0.0 3.0 8 41
r 0.706282 3 2 ack 40 ------- 2 3.0 0.0 5 36
+ 0.706282 2 0 ack 40 ------- 2 3.0 0.0 5 36
- 0.706282 2 0 ack 40 ------- 2 3.0 0.0 5 36
r 0.706842 2 0 ack 40 ------- 2 3.0 0.0 4 34
+ 0.706842 0 2 tcp 1040 ------- 2 0.0 3.0 9 42
+ 0.706842 0 2 tcp 1040 ------- 2 0.0 3.0 10 43
+ 0.708 1 2 cbr 1000 ------- 1 1.0 3.1 26 44
- 0.708 1 2 cbr 1000 ------- 1 1.0 3.1 26 44
r 0.709812 2 3 cbr 1000 ------- 1 1.0 3.1 21 31
- 0.710268 0 2 tcp 1040 ------- 2 0.0 3.0 9 42
r 0.714 1 2 cbr 1000 ------- 1 1.0 3.1 25 39
+ 0.714 2 3 cbr 1000 ------- 1 1.0 3.1 25 39
- 0.714 2 3 cbr 1000 ------- 1 1.0 3.1 25 39
- 0.714428 0 2 tcp 1040 ------- 2 0.0 3.0 10 43
r 0.714706 2 3 cbr 1000 ------- 1 1.0 3.1 22 33
r 0.715882 3 2 ack 40 ------- 2 3.0 0.0 6 38
+ 0.715882 2 0 ack 40 ------- 2 3.0 0.0 6 38
- 0.715882 2 0 ack 40 ------- 2 3.0 0.0 6 38
+ 0.716 1 2 cbr 1000 ------- 1 1.0 3.1 27 45
- 0.716 1 2 cbr 1000 ------- 1 1.0 3.1 27 45
r 0.716108 0 2 tcp 1040 ------- 2 0.0 3.0 7 40
+ 0.716108 2 3 tcp 1040 ------- 2 0.0 3.0 7 40
r 0.716442 2 0 ack 40 ------- 2 3.0 0.0 5 36
+ 0.716442 0 2 tcp 1040 ------- 2 0.0 3.0 11 46
+ 0.716442 0 2 tcp 1040 ------- 2 0.0 3.0 12 47
- 0.718588 0 2 tcp 1040 ------- 2 0.0 3.0 11 46
- 0.718706 2 3 tcp 1040 ------- 2 0.0 3.0 7 40
r 0.720268 0 2 tcp 1040 ------- 2 0.0 3.0 8 41
+ 0.720268 2 3 tcp 1040 ------- 2 0.0 3.0 8 41
r 0.722 1 2 cbr 1000 ------- 1 1.0 3.1 26 44
+ 0.722 2 3 cbr 1000 ------- 1 1.0 3.1 26 44
r 0.722706 2 3 cbr 1000 ------- 1 1.0 3.1 23 35
- 0.722748 0 2 tcp 1040 ------- 2 0.0 3.0 12 47
- 0.7236 2 3 tcp 1040 ------- 2 0.0 3.0 8 41
+ 0.724 1 2 cbr 1000 ------- 1 1.0 3.1 28 48
- 0.724 1 2 cbr 1000 ------- 1 1.0 3.1 28 48
r 0.724428 0 2 tcp 1040 ------- 2 0.0 3.0 9 42
+ 0.724428 2 3 tcp 1040 ------- 2 0.0 3.0 9 42
r 0.726042 2 0 ack 40 ------- 2 3.0 0.0 6 38
+ 0.726042 0 2 tcp 1040 ------- 2 0.0 3.0 13 49
+ 0.726042 0 2 tcp 1040 ------- 2 0.0 3.0 14 50
- 0.726908 0 2 tcp 1040 ------- 2 0.0 3.0 13 49
- 0.728494 2 3 cbr 1000 ------- 1 1.0 3.1 26 44
r 0.728588 0 2 tcp 1040 ------- 2 0.0 3.0 10 43
+ 0.728588 2 3 tcp 1040 ------- 2 0.0 3.0 10 43
r 0.73 1 2 cbr 1000 ------- 1 1.0 3.1 27 45
+ 0.73 2 3 cbr 1000 ------- 1 1.0 3.1 27 45
r 0.730706 2 3 cbr 1000 ------- 1 1.0 3.1 24 37
- 0.731068 0 2 tcp 1040 ------- 2 0.0 3.0 14 50
+ 0.732 1 2 cbr 1000 ------- 1 1.0 3.1 29 51
- 0.732 1 2 cbr 1000 ------- 1 1.0 3.1 29 51
r 0.732748 0 2 tcp 1040 ------- 2 0.0 3.0 11 46
+ 0.732748 2 3 tcp 1040 ------- 2 0.0 3.0 11 46
- 0.7332 2 3 tcp 1040 ------- 2 0.0 3.0 9 42
r 0.736908 0 2 tcp 1040 ------- 2 0.0 3.0 12 47
+ 0.736908 2 3 tcp 1040 ------- 2 0.0 3.0 12 47
r 0.738 1 2 cbr 1000 ------- 1 1.0 3.1 28 48
+ 0.738 2 3 cbr 1000 ------- 1 1.0 3.1 28 48
- 0.738094 2 3 tcp 1040 ------- 2 0.0 3.0 10 43
r 0.738706 2 3 cbr 1000 ------- 1 1.0 3.1 25 39
+ 0.74 1 2 cbr 1000 ------- 1 1.0 3.1 30 52
- 0.74 1 2 cbr 1000 ------- 1 1.0 3.1 30 52
r 0.741068 0 2 tcp 1040 ------- 2 0.0 3.0 13 49
+ 0.741068 2 3 tcp 1040 ------- 2 0.0 3.0 13 49
- 0.742988 2 3 cbr 1000 ------- 1 1.0 3.1 27 45
r 0.7436 2 3 tcp 1040 ------- 2 0.0 3.0 7 40
+ 0.7436 3 2 ack 40 ------- 2 3.0 0.0 7 53
- 0.7436 3 2 ack 40 ------- 2 3.0 0.0 7 53
r 0.745228 0 2 tcp 1040 ------- 2 0.0 3.0 14 50
+ 0.745228 2 3 tcp 1040 ------- 2 0.0 3.0 14 50
r 0.746 1 2 cbr 1000 ------- 1 1.0 3.1 29 51
+ 0.746 2 3 cbr 1000 ------- 1 1.0 3.1 29 51
- 0.747694 2 3 tcp 1040 ------- 2 0.0 3.0 11 46
+ 0.748 1 2 cbr 1000 ------- 1 1.0 3.1 31 54
- 0.748 1 2 cbr 1000 ------- 1 1.0 3.1 31 54
r 0.748494 2 3 tcp 1040 ------- 2 0.0 3.0 8 41
+ 0.748494 3 2 ack 40 ------- 2 3.0 0.0 8 55
- 0.748494 3 2 ack 40 ------- 2 3.0 0.0 8 55
- 0.752588 2 3 tcp 1040 ------- 2 0.0 3.0 12 47
r 0.7532 2 3 cbr 1000 ------- 1 1.0 3.1 26 44
r 0.754 1 2 cbr 1000 ------- 1 1.0 3.1 30 52
+ 0.754 2 3 cbr 1000 ------- 1 1.0 3.1 30 52
+ 0.756 1 2 cbr 1000 ------- 1 1.0 3.1 32 56
- 0.756 1 2 cbr 1000 ------- 1 1.0 3.1 32 56
- 0.757482 2 3 cbr 1000 ------- 1 1.0 3.1 28 48
r 0.758094 2 3 tcp 1040 ------- 2 0.0 3.0 9 42
+ 0.758094 3 2 ack 40 ------- 2 3.0 0.0 9 57
- 0.758094 3 2 ack 40 ------- 2 3.0 0.0 9 57
r 0.762 1 2 cbr 1000 ------- 1 1.0 3.1 31 54
+ 0.762 2 3 cbr 1000 ------- 1 1.0 3.1 31 54
- 0.762188 2 3 tcp 1040 ------- 2 0.0 3.0 13 49
r 0.762988 2 3 tcp 1040 ------- 2 0.0 3.0 10 43
+ 0.762988 3 2 ack 40 ------- 2 3.0 0.0 10 58
- 0.762988 3 2 ack 40 ------- 2 3.0 0.0 10 58
r 0.763788 3 2 ack 40 ------- 2 3.0 0.0 7 53
+ 0.763788 2 0 ack 40 ------- 2 3.0 0.0 7 53
- 0.763788 2 0 ack 40 ------- 2 3.0 0.0 7 53
+ 0.764 1 2 cbr 1000 ------- 1 1.0 3.1 33 59
- 0.764 1 2 cbr 1000 ------- 1 1.0 3.1 33 59
- 0.767082 2 3 tcp 1040 ------- 2 0.0 3.0 14 50
r 0.767694 2 3 cbr 1000 ------- 1 1.0 3.1 27 45
r 0.768682 3 2 ack 40 ------- 2 3.0 0.0 8 55
+ 0.768682 2 0 ack 40 ------- 2 3.0 0.0 8 55
- 0.768682 2 0 ack 40 ------- 2 3.0 0.0 8 55
r 0.77 1 2 cbr 1000 ------- 1 1.0 3.1 32 56
+ 0.77 2 3 cbr 1000 ------- 1 1.0 3.1 32 56
- 0.771976 2 3 cbr 1000 ------- 1 1.0 3.1 29 51
+ 0.772 1 2 cbr 1000 ------- 1 1.0 3.1 34 60
- 0.772 1 2 cbr 1000 ------- 1 1.0 3.1 34 60
r 0.772588 2 3 tcp 1040 ------- 2 0.0 3.0 11 46
+ 0.772588 3 2 ack 40 ------- 2 3.0 0.0 11 61
- 0.772588 3 2 ack 40 ------- 2 3.0 0.0 11 61
r 0.773948 2 0 ack 40 ------- 2 3.0 0.0 7 53
+ 0.773948 0 2 tcp 1040 ------- 2 0.0 3.0 15 62
- 0.773948 0 2 tcp 1040 ------- 2 0.0 3.0 15 62
+ 0.773948 0 2 tcp 1040 ------- 2 0.0 3.0 16 63
- 0.776682 2 3 cbr 1000 ------- 1 1.0 3.1 30 52
r 0.777482 2 3 tcp 1040 ------- 2 0.0 3.0 12 47
+ 0.777482 3 2 ack 40 ------- 2 3.0 0.0 12 64
- 0.777482 3 2 ack 40 ------- 2 3.0 0.0 12 64
r 0.778 1 2 cbr 1000 ------- 1 1.0 3.1 33 59
+ 0.778 2 3 cbr 1000 ------- 1 1.0 3.1 33 59
- 0.778108 0 2 tcp 1040 ------- 2 0.0 3.0 16 63
r 0.778282 3 2 ack 40 ------- 2 3.0 0.0 9 57
+ 0.778282 2 0 ack 40 ------- 2 3.0 0.0 9 57
- 0.778282 2 0 ack 40 ------- 2 3.0 0.0 9 57
r 0.778842 2 0 ack 40 ------- 2 3.0 0.0 8 55
+ 0.778842 0 2 tcp 1040 ------- 2 0.0 3.0 17 65
+ 0.778842 0 2 tcp 1040 ------- 2 0.0 3.0 18 66
+ 0.78 1 2 cbr 1000 ------- 1 1.0 3.1 35 67
- 0.78 1 2 cbr 1000 ------- 1 1.0 3.1 35 67
- 0.781388 2 3 cbr 1000 ------- 1 1.0 3.1 31 54
r 0.782188 2 3 cbr 1000 ------- 1 1.0 3.1 28 48
- 0.782268 0 2 tcp 1040 ------- 2 0.0 3.0 17 65
r 0.783176 3 2 ack 40 ------- 2 3.0 0.0 10 58
+ 0.783176 2 0 ack 40 ------- 2 3.0 0.0 10 58
- 0.783176 2 0 ack 40 ------- 2 3.0 0.0 10 58
r 0.786 1 2 cbr 1000 ------- 1 1.0 3.1 34 60
+ 0.786 2 3 cbr 1000 ------- 1 1.0 3.1 34 60
- 0.786094 2 3 cbr 1000 ------- 1 1.0 3.1 32 56
- 0.786428 0 2 tcp 1040 ------- 2 0.0 3.0 18 66
r 0.787082 2 3 tcp 1040 ------- 2 0.0 3.0 13 49
+ 0.787082 3 2 ack 40 ------- 2 3.0 0.0 13 68
- 0.787082 3 2 ack 40 ------- 2 3.0 0.0 13 68
+ 0.788 1 2 cbr 1000 ------- 1 1.0 3.1 36 69
- 0.788 1 2 cbr 1000 ------- 1 1.0 3.1 36 69
r 0.788108 0 2 tcp 1040 ------- 2 0.0 3.0 15 62
+ 0.788108 2 3 tcp 1040 ------- 2 0.0 3.0 15 62
r 0.788442 2 0 ack 40 ------- 2 3.0 0.0 9 57
+ 0.788442 0 2 tcp 1040 ------- 2 0.0 3.0 19 70
+ 0.788442 0 2 tcp 1040 ------- 2 0.0 3.0 20 71
- 0.790588 0 2 tcp 1040 ------- 2 0.0 3.0 19 70
- 0.7908 2 3 cbr 1000 ------- 1 1.0 3.1 33 59
r 0.791976 2 3 tcp 1040 ------- 2 0.0 3.0 14 50
+ 0.791976 3 2 ack 40 ------- 2 3.0 0.0 14 72
- 0.791976 3 2 ack 40 ------- 2 3.0 0.0 14 72
r 0.792268 0 2 tcp 1040 ------- 2 0.0 3.0 16 63
+ 0.792268 2 3 tcp 1040 ------- 2 0.0 3.0 16 63
r 0.792776 3 2 ack 40 ------- 2 3.0 0.0 11 61
+ 0.792776 2 0 ack 40 ------- 2 3.0 0.0 11 61
- 0.792776 2 0 ack 40 ------- 2 3.0 0.0 11 61
r 0.793336 2 0 ack 40 ------- 2 3.0 0.0 10 58
+ 0.793336 0 2 tcp 1040 ------- 2 0.0 3.0 21 73
+ 0.793336 0 2 tcp 1040 ------- 2 0.0 3.0 22 74
r 0.794 1 2 cbr 1000 ------- 1 1.0 3.1 35 67
+ 0.794 2 3 cbr 1000 ------- 1 1.0 3.1 35 67
- 0.794748 0 2 tcp 1040 ------- 2 0.0 3.0 20 71
- 0.795506 2 3 cbr 1000 ------- 1 1.0 3.1 34 60
+ 0.796 1 2 cbr 1000 ------- 1 1.0 3.1 37 75
- 0.796 1 2 cbr 1000 ------- 1 1.0 3.1 37 75
r 0.796428 0 2 tcp 1040 ------- 2 0.0 3.0 17 65
+ 0.796428 2 3 tcp 1040 ------- 2 0.0 3.0 17 65
r 0.796682 2 3 cbr 1000 ------- 1 1.0 3.1 29 51
r 0.797671 3 2 ack 40 ------- 2 3.0 0.0 12 64
+ 0.797671 2 0 ack 40 ------- 2 3.0 0.0 12 64
- 0.797671 2 0 ack 40 ------- 2 3.0 0.0 12 64
- 0.798908 0 2 tcp 1040 ------- 2 0.0 3.0 21 73
- 0.800212 2 3 tcp 1040 ------- 2 0.0 3.0 15 62
r 0.800588 0 2 tcp 1040 ------- 2 0.0 3.0 18 66
+ 0.800588 2 3 tcp 1040 ------- 2 0.0 3.0 18 66
r 0.801388 2 3 cbr 1000 ------- 1 1.0 3.1 30 52
r 0.802 1 2 cbr 1000 ------- 1 1.0 3.1 36 69
+ 0.802 2 3 cbr 1000 ------- 1 1.0 3.1 36 69
r 0.802936 2 0 ack 40 ------- 2 3.0 0.0 11 61
+ 0.802936 0 2 tcp 1040 ------- 2 0.0 3.0 23 76
+ 0.802936 0 2 tcp 1040 ------- 2 0.0 3.0 24 77
- 0.803068 0 2 tcp 1040 ------- 2 0.0 3.0 22 74
+ 0.804 1 2 cbr 1000 ------- 1 1.0 3.1 38 78
- 0.804 1 2 cbr 1000 ------- 1 1.0 3.1 38 78
r 0.804748 0 2 tcp 1040 ------- 2 0.0 3.0 19 70
+ 0.804748 2 3 tcp 1040 ------- 2 0.0 3.0 19 70
- 0.805106 2 3 tcp 1040 ------- 2 0.0 3.0 16 63
r 0.806094 2 3 cbr 1000 ------- 1 1.0 3.1 31 54
- 0.807228 0 2 tcp 1040 ------- 2 0.0 3.0 23 76
r 0.807271 3 2 ack 40 ------- 2 3.0 0.0 13 68
+ 0.807271 2 0 ack 40 ------- 2 3.0 0.0 13 68
- 0.807271 2 0 ack 40 ------- 2 3.0 0.0 13 68
r 0.807831 2 0 ack 40 ------- 2 3.0 0.0 12 64
+ 0.807831 0 2 tcp 1040 ------- 2 0.0 3.0 25 79
+ 0.807831 0 2 tcp 1040 ------- 2 0.0 3.0 26 80
r 0.808908 0 2 tcp 1040 ------- 2 0.0 3.0 20 71
+ 0.808908 2 3 tcp 1040 ------- 2 0.0 3.0 20 71
r 0.81 1 2 cbr 1000 ------- 1 1.0 3.1 37 75
+ 0.81 2 3 cbr 1000 ------- 1 1.0 3.1 37 75
- 0.81 2 3 cbr 1000 ------- 1 1.0 3.1 35 67
r 0.8108 2 3 cbr 1000 ------- 1 1.0 3.1 32 56
- 0.811388 0 2 tcp 1040 ------- 2 0.0 3.0 24 77
+ 0.812 1 2 cbr 1000 ------- 1 1.0 3.1 39 81
- 0.812 1 2 cbr 1000 ------- 1 1.0 3.1 39 81
r 0.812165 3 2 ack 40 ------- 2 3.0 0.0 14 72
+ 0.812165 2 0 ack 40 ------- 2 3.0 0.0 14 72
- 0.812165 2 0 ack 40 ------- 2 3.0 0.0 14 72
r 0.813068 0 2 tcp 1040 ------- 2 0.0 3.0 21 73
+ 0.813068 2 3 tcp 1040 ------- 2 0.0 3.0 21 73
- 0.814706 2 3 tcp 1040 ------- 2 0.0 3.0 17 65
r 0.815506 2 3 cbr 1000 ------- 1 1.0 3.1 33 59
- 0.815548 0 2 tcp 1040 ------- 2 0.0 3.0 25 79
r 0.817228 0 2 tcp 1040 ------- 2 0.0 3.0 22 74
+ 0.817228 2 3 tcp 1040 ------- 2 0.0 3.0 22 74
r 0.817431 2 0 ack 40 ------- 2 3.0 0.0 13 68
+ 0.817431 0 2 tcp 1040 ------- 2 0.0 3.0 27 82
+ 0.817431 0 2 tcp 1040 ------- 2 0.0 3.0 28 83
r 0.818 1 2 cbr 1000 ------- 1 1.0 3.1 38 78
+ 0.818 2 3 cbr 1000 ------- 1 1.0 3.1 38 78
- 0.8196 2 3 tcp 1040 ------- 2 0.0 3.0 18 66
- 0.819708 0 2 tcp 1040 ------- 2 0.0 3.0 26 80
+ 0.82 1 2 cbr 1000 ------- 1 1.0 3.1 40 84
- 0.82 1 2 cbr 1000 ------- 1 1.0 3.1 40 84
r 0.820212 2 3 cbr 1000 ------- 1 1.0 3.1 34 60
r 0.821388 0 2 tcp 1040 ------- 2 0.0 3.0 23 76
+ 0.821388 2 3 tcp 1040 ------- 2 0.0 3.0 23 76
r 0.822325 2 0 ack 40 ------- 2 3.0 0.0 14 72
+ 0.822325 0 2 tcp 1040 ------- 2 0.0 3.0 29 85
+ 0.822325 0 2 tcp 1040 ------- 2 0.0 3.0 30 86
- 0.823868 0 2 tcp 1040 ------- 2 0.0 3.0 27 82
- 0.824494 2 3 cbr 1000 ------- 1 1.0 3.1 36 69
r 0.825106 2 3 tcp 1040 ------- 2 0.0 3.0 15 62
+ 0.825106 3 2 ack 40 ------- 2 3.0 0.0 15 87
- 0.825106 3 2 ack 40 ------- 2 3.0 0.0 15 87
r 0.825548 0 2 tcp 1040 ------- 2 0.0 3.0 24 77
+ 0.825548 2 3 tcp 1040 ------- 2 0.0 3.0 24 77
r 0.826 1 2 cbr 1000 ------- 1 1.0 3.1 39 81
+ 0.826 2 3 cbr 1000 ------- 1 1.0 3.1 39 81
+ 0.828 1 2 cbr 1000 ------- 1 1.0 3.1 41 88
- 0.828 1 2 cbr 1000 ------- 1 1.0 3.1 41 88
- 0.828028 0 2 tcp 1040 ------- 2 0.0 3.0 28 83
- 0.8292 2 3 tcp 1040 ------- 2 0.0 3.0 19 70
r 0.829708 0 2 tcp 1040 ------- 2 0.0 3.0 25 79
+ 0.829708 2 3 tcp 1040 ------- 2 0.0 3.0 25 79
r 0.83 2 3 tcp 1040 ------- 2 0.0 3.0 16 63
+ 0.83 3 2 ack 40 ------- 2 3.0 0.0 16 89
- 0.83 3 2 ack 40 ------- 2 3.0 0.0 16 89
- 0.832188 0 2 tcp 1040 ------- 2 0.0 3.0 29 85
r 0.833868 0 2 tcp 1040 ------- 2 0.0 3.0 26 80
+ 0.833868 2 3 tcp 1040 ------- 2 0.0 3.0 26 80
r 0.834 1 2 cbr 1000 ------- 1 1.0 3.1 40 84
+ 0.834 2 3 cbr 1000 ------- 1 1.0 3.1 40 84
- 0.834094 2 3 tcp 1040 ------- 2 0.0 3.0 20 71
r 0.834706 2 3 cbr 1000 ------- 1 1.0 3.1 35 67
+ 0.836 1 2 cbr 1000 ------- 1 1.0 3.1 42 90
- 0.836 1 2 cbr 1000 ------- 1 1.0 3.1 42 90
- 0.836348 0 2 tcp 1040 ------- 2 0.0 3.0 30 86
r 0.838028 0 2 tcp 1040 ------- 2 0.0 3.0 27 82
+ 0.838028 2 3 tcp 1040 ------- 2 0.0 3.0 27 82
- 0.838988 2 3 cbr 1000 ------- 1 1.0 3.1 37 75
r 0.8396 2 3 tcp 1040 ------- 2 0.0 3.0 17 65
+ 0.8396 3 2 ack 40 ------- 2 3.0 0.0 17 91
- 0.8396 3 2 ack 40 ------- 2 3.0 0.0 17 91
r 0.842 1 2 cbr 1000 ------- 1 1.0 3.1 41 88
+ 0.842 2 3 cbr 1000 ------- 1 1.0 3.1 41 88
r 0.842188 0 2 tcp 1040 ------- 2 0.0 3.0 28 83
+ 0.842188 2 3 tcp 1040 ------- 2 0.0 3.0 28 83
- 0.843694 2 3 tcp 1040 ------- 2 0.0 3.0 21 73
+ 0.844 1 2 cbr 1000 ------- 1 1.0 3.1 43 92
- 0.844 1 2 cbr 1000 ------- 1 1.0 3.1 43 92
r 0.844494 2 3 tcp 1040 ------- 2 0.0 3.0 18 66
+ 0.844494 3 2 ack 40 ------- 2 3.0 0.0 18 93
- 0.844494 3 2 ack 40 ------- 2 3.0 0.0 18 93
r 0.845294 3 2 ack 40 ------- 2 3.0 0.0 15 87
+ 0.845294 2 0 ack 40 ------- 2 3.0 0.0 15 87
- 0.845294 2 0 ack 40 ------- 2 3.0 0.0 15 87
r 0.846348 0 2 tcp 1040 ------- 2 0.0 3.0 29 85
+ 0.846348 2 3 tcp 1040 ------- 2 0.0 3.0 29 85
- 0.848588 2 3 tcp 1040 ------- 2 0.0 3.0 22 74
r 0.8492 2 3 cbr 1000 ------- 1 1.0 3.1 36 69
r 0.85 1 2 cbr 1000 ------- 1 1.0 3.1 42 90
+ 0.85 2 3 cbr 1000 ------- 1 1.0 3.1 42 90
r 0.850188 3 2 ack 40 ------- 2 3.0 0.0 16 89
+ 0.850188 2 0 ack 40 ------- 2 3.0 0.0 16 89
- 0.850188 2 0 ack 40 ------- 2 3.0 0.0 16 89
r 0.850508 0 2 tcp 1040 ------- 2 0.0 3.0 30 86
+ 0.850508 2 3 tcp 1040 ------- 2 0.0 3.0 30 86
+ 0.852 1 2 cbr 1000 ------- 1 1.0 3.1 44 94
- 0.852 1 2 cbr 1000 ------- 1 1.0 3.1 44 94
- 0.853482 2 3 cbr 1000 ------- 1 1.0 3.1 38 78
r 0.854094 2 3 tcp 1040 ------- 2 0.0 3.0 19 70
+ 0.854094 3 2 ack 40 ------- 2 3.0 0.0 19 95
- 0.854094 3 2 ack 40 ------- 2 3.0 0.0 19 95
r 0.855454 2 0 ack 40 ------- 2 3.0 0.0 15 87
+ 0.855454 0 2 tcp 1040 ------- 2 0.0 3.0 31 96
- 0.855454 0 2 tcp 1040 ------- 2 0.0 3.0 31 96
+ 0.855454 0 2 tcp 1040 ------- 2 0.0 3.0 32 97
r 0.858 1 2 cbr 1000 ------- 1 1.0 3.1 43 92
+ 0.858 2 3 cbr 1000 ------- 1 1.0 3.1 43 92
- 0.858188 2 3 tcp 1040 ------- 2 0.0 3.0 23 76
r 0.858988 2 3 tcp 1040 ------- 2 0.0 3.0 20 71
+ 0.858988 3 2 ack 40 ------- 2 3.0 0.0 20 98
- 0.858988 3 2 ack 40 ------- 2 3.0 0.0 20 98
- 0.859614 0 2 tcp 1040 ------- 2 0.0 3.0 32 97
r 0.859788 3 2 ack 40 ------- 2 3.0 0.0 17 91
+ 0.859788 2 0 ack 40 ------- 2 3.0 0.0 17 91
- 0.859788 2 0 ack 40 ------- 2 3.0 0.0 17 91
+ 0.86 1 2 cbr 1000 ------- 1 1.0 3.1 45 99
- 0.86 1 2 cbr 1000 ------- 1 1.0 3.1 45 99
r 0.860348 2 0 ack 40 ------- 2 3.0 0.0 16 89
+ 0.860348 0 2 tcp 1040 ------- 2 0.0 3.0 33 100
+ 0.860348 0 2 tcp 1040 ------- 2 0.0 3.0 34 101
- 0.863082 2 3 tcp 1040 ------- 2 0.0 3.0 24 77
r 0.863694 2 3 cbr 1000 ------- 1 1.0 3.1 37 75
- 0.863774 0 2 tcp 1040 ------- 2 0.0 3.0 33 100
r 0.864682 3 2 ack 40 ------- 2 3.0 0.0 18 93
+ 0.864682 2 0 ack 40 ------- 2 3.0 0.0 18 93
- 0.864682 2 0 ack 40 ------- 2 3.0 0.0 18 93
r 0.866 1 2 cbr 1000 ------- 1 1.0 3.1 44 94
+ 0.866 2 3 cbr 1000 ------- 1 1.0 3.1 44 94
- 0.867934 0 2 tcp 1040 ------- 2 0.0 3.0 34 101
- 0.867976 2 3 cbr 1000 ------- 1 1.0 3.1 39 81
+ 0.868 1 2 cbr 1000 ------- 1 1.0 3.1 46 102
- 0.868 1 2 cbr 1000 ------- 1 1.0 3.1 46 102
r 0.868588 2 3 tcp 1040 ------- 2 0.0 3.0 21 73
+ 0.868588 3 2 ack 40 ------- 2 3.0 0.0 21 103
- 0.868588 3 2 ack 40 ------- 2 3.0 0.0 21 103
r 0.869614 0 2 tcp 1040 ------- 2 0.0 3.0 31 96
+ 0.869614 2 3 tcp 1040 ------- 2 0.0 3.0 31 96
r 0.869948 2 0 ack 40 ------- 2 3.0 0.0 17 91
+ 0.869948 0 2 tcp 1040 ------- 2 0.0 3.0 35 104
+ 0.869948 0 2 tcp 1040 ------- 2 0.0 3.0 36 105
- 0.872094 0 2 tcp 1040 ------- 2 0.0 3.0 35 104
- 0.872682 2 3 tcp 1040 ------- 2 0.0 3.0 25 79
r 0.873482 2 3 tcp 1040 ------- 2 0.0 3.0 22 74
+ 0.873482 3 2 ack 40 ------- 2 3.0 0.0 22 106
- 0.873482 3 2 ack 40 ------- 2 3.0 0.0 22 106
r 0.873774 0 2 tcp 1040 ------- 2 0.0 3.0 32 97
+ 0.873774 2 3 tcp 1040 ------- 2 0.0 3.0 32 97
r 0.874 1 2 cbr 1000 ------- 1 1.0 3.1 45 99
+ 0.874 2 3 cbr 1000 ------- 1 1.0 3.1 45 99
r 0.874282 3 2 ack 40 ------- 2 3.0 0.0 19 95
+ 0.874282 2 0 ack 40 ------- 2 3.0 0.0 19 95
- 0.874282 2 0 ack 40 ------- 2 3.0 0.0 19 95
r 0.874842 2 0 ack 40 ------- 2 3.0 0.0 18 93
+ 0.874842 0 2 tcp 1040 ------- 2 0.0 3.0 37 107
+ 0.874842 0 2 tcp 1040 ------- 2 0.0 3.0 38 108
+ 0.876 1 2 cbr 1000 ------- 1 1.0 3.1 47 109
- 0.876 1 2 cbr 1000 ------- 1 1.0 3.1 47 109
- 0.876254 0 2 tcp 1040 ------- 2 0.0 3.0 36 105
- 0.877576 2 3 tcp 1040 ------- 2 0.0 3.0 26 80
r 0.877934 0 2 tcp 1040 ------- 2 0.0 3.0 33 100
+ 0.877934 2 3 tcp 1040 ------- 2 0.0 3.0 33 100
r 0.878188 2 3 cbr 1000 ------- 1 1.0 3.1 38 78
r 0.879176 3 2 ack 40 ------- 2 3.0 0.0 20 98
+ 0.879176 2 0 ack 40 ------- 2 3.0 0.0 20 98
- 0.879176 2 0 ack 40 ------- 2 3.0 0.0 20 98
- 0.880414 0 2 tcp 1040 ------- 2 0.0 3.0 37 107
r 0.882 1 2 cbr 1000 ------- 1 1.0 3.1 46 102
+ 0.882 2 3 cbr 1000 ------- 1 1.0 3.1 46 102
r 0.882094 0 2 tcp 1040 ------- 2 0.0 3.0 34 101
+ 0.882094 2 3 tcp 1040 ------- 2 0.0 3.0 34 101
- 0.882471 2 3 cbr 1000 ------- 1 1.0 3.1 40 84
r 0.883082 2 3 tcp 1040 ------- 2 0.0 3.0 23 76
+ 0.883082 3 2 ack 40 ------- 2 3.0 0.0 23 110
- 0.883082 3 2 ack 40 ------- 2 3.0 0.0 23 110
+ 0.884 1 2 cbr 1000 ------- 1 1.0 3.1 48 111
- 0.884 1 2 cbr 1000 ------- 1 1.0 3.1 48 111
r 0.884442 2 0 ack 40 ------- 2 3.0 0.0 19 95
+ 0.884442 0 2 tcp 1040 ------- 2 0.0 3.0 39 112
- 0.884574 0 2 tcp 1040 ------- 2 0.0 3.0 38 108
r 0.886254 0 2 tcp 1040 ------- 2 0.0 3.0 35 104
+ 0.886254 2 3 tcp 1040 ------- 2 0.0 3.0 35 104
- 0.887176 2 3 tcp 1040 ------- 2 0.0 3.0 27 82
r 0.887976 2 3 tcp 1040 ------- 2 0.0 3.0 24 77
+ 0.887976 3 2 ack 40 ------- 2 3.0 0.0 24 113
- 0.887976 3 2 ack 40 ------- 2 3.0 0.0 24 113
- 0.888734 0 2 tcp 1040 ------- 2 0.0 3.0 39 112
r 0.888776 3 2 ack 40 ------- 2 3.0 0.0 21 103
+ 0.888776 2 0 ack 40 ------- 2 3.0 0.0 21 103
- 0.888776 2 0 ack 40 ------- 2 3.0 0.0 21 103
r 0.889336 2 0 ack 40 ------- 2 3.0 0.0 20 98
+ 0.889336 0 2 tcp 1040 ------- 2 0.0 3.0 40 114
r 0.89 1 2 cbr 1000 ------- 1 1.0 3.1 47 109
+ 0.89 2 3 cbr 1000 ------- 1 1.0 3.1 47 109
r 0.890414 0 2 tcp 1040 ------- 2 0.0 3.0 36 105
+ 0.890414 2 3 tcp 1040 ------- 2 0.0 3.0 36 105
+ 0.892 1 2 cbr 1000 ------- 1 1.0 3.1 49 115
- 0.892 1 2 cbr 1000 ------- 1 1.0 3.1 49 115
- 0.892071 2 3 cbr 1000 ------- 1 1.0 3.1 41 88
r 0.892682 2 3 cbr 1000 ------- 1 1.0 3.1 39 81
- 0.892894 0 2 tcp 1040 ------- 2 0.0 3.0 40 114
r 0.893671 3 2 ack 40 ------- 2 3.0 0.0 22 106
+ 0.893671 2 0 ack 40 ------- 2 3.0 0.0 22 106
- 0.893671 2 0 ack 40 ------- 2 3.0 0.0 22 106
r 0.894574 0 2 tcp 1040 ------- 2 0.0 3.0 37 107
+ 0.894574 2 3 tcp 1040 ------- 2 0.0 3.0 37 107
- 0.896776 2 3 tcp 1040 ------- 2 0.0 3.0 28 83
r 0.897576 2 3 tcp 1040 ------- 2 0.0 3.0 25 79
+ 0.897576 3 2 ack 40 ------- 2 3.0 0.0 25 116
- 0.897576 3 2 ack 40 ------- 2 3.0 0.0 25 116
r 0.898 1 2 cbr 1000 ------- 1 1.0 3.1 48 111
+ 0.898 2 3 cbr 1000 ------- 1 1.0 3.1 48 111
r 0.898734 0 2 tcp 1040 ------- 2 0.0 3.0 38 108
+ 0.898734 2 3 tcp 1040 ------- 2 0.0 3.0 38 108
r 0.898936 2 0 ack 40 ------- 2 3.0 0.0 21 103
+ 0.898936 0 2 tcp 1040 ------- 2 0.0 3.0 41 117
- 0.898936 0 2 tcp 1040 ------- 2 0.0 3.0 41 117
+ 0.9 1 2 cbr 1000 ------- 1 1.0 3.1 50 118
- 0.9 1 2 cbr 1000 ------- 1 1.0 3.1 50 118
- 0.901671 2 3 tcp 1040 ------- 2 0.0 3.0 29 85
r 0.902471 2 3 tcp 1040 ------- 2 0.0 3.0 26 80
+ 0.902471 3 2 ack 40 ------- 2 3.0 0.0 26 119
- 0.902471 3 2 ack 40 ------- 2 3.0 0.0 26 119
r 0.902894 0 2 tcp 1040 ------- 2 0.0 3.0 39 112
+ 0.902894 2 3 tcp 1040 ------- 2 0.0 3.0 39 112
r 0.903271 3 2 ack 40 ------- 2 3.0 0.0 23 110
+ 0.903271 2 0 ack 40 ------- 2 3.0 0.0 23 110
- 0.903271 2 0 ack 40 ------- 2 3.0 0.0 23 110