V -t * -v 1.0a5 -a 0
A -t * -n 1 -p 0 -o 0x7fffffff -c 30 -a 1
A -t * -h 1 -m 1073741823 -s 0
c -t * -i 1 -n Green
c -t * -i 2 -n Red
n -t * -a 0 -s 0 -S UP -v circle -c black -i black
n -t * -a 1 -s 1 -S UP -v circle -c black -i black
n -t * -a 2 -s 2 -S UP -v circle -c black -i black
n -t * -a 3 -s 3 -S UP -v circle -c black -i black
l -t * -s 1 -d 2 -S UP -r 2000000 -D 0.01 -c black
l -t * -s 0 -d 2 -S UP -r 2000000 -D 0.01 -c black -o left
l -t * -s 2 -d 3 -S UP -r 1700000 -D 0.02 -c black -o right
q -t * -s 2 -d 0 -a 0.5
q -t * -s 0 -d 2 -a 0.5
q -t * -s 2 -d 1 -a 0.5
q -t * -s 1 -d 2 -a 0.5
+ -t 0.5 -s 1 -d 2 -p cbr -e 1000 -c 1 -i 0 -a 1 -x {1.0 3.1 0 ------- null}
- -t 0.5 -s 1 -d 2 -p cbr -e 1000 -c 1 -i 0 -a 1 -x {1.0 3.1 0 ------- null}
h -t 0.5 -s 1 -d 2 -p cbr -e 1000 -c 1 -i 0 -a 1 -x {1.0 3.1 -1 ------- null}
+ -t 0.5 -s 0 -d 2 -p tcp -e 40 -c 2 -i 1 -a 2 -x {0.0 3.0 0 ------- null}
- -t 0.5 -s 0 -d 2 -p tcp -e 40 -c 2 -i 1 -a 2 -x {0.0 3.0 0 ------- null}
h -t 0.5 -s 0 -d 2 -p tcp -e 40 -c 2 -i 1 -a 2 -x {0.0 3.0 -1 ------- null}
+ -t 0.508 -s 1 -d 2 -p cbr -e 1000 -c 1 -i 2 -a 1 -x {1.0 3.1 1 ------- null}
- -t 0.508 -s 1 -d 2 -p cbr -e 1000 -c 1 -i 2 -a 1 -x {1.0 3.1 1 ------- null}
h -t 0.508 -s 1 -d 2 -p cbr -e 1000 -c 1 -i 2 -a 1 -x {1.0 3.1 -1 ------- null}
r -t 0.51016 -s 0 -d 2 -p tcp -e 40 -c 2 -i 1 -a 2 -x {0.0 3.0 0 ------- null}
+ -t 0.51016 -s 2 -d 3 -p tcp -e 40 -c 2 -i 1 -a 2 -x {0.0 3.0 0 ------- null}
- -t 0.51016 -s 2 -d 3 -p tcp -e 40 -c 2 -i 1 -a 2 -x {0.0 3.0 0 ------- null}
h -t 0.51016 -s 2 -d 3 -p tcp -e 40 -c 2 -i 1 -a 2 -x {0.0 3.0 -1 ------- null}
r -t 0.514 -s 1 -d 2 -p cbr -e 1000 -c 1 -i 0 -a 1 -x {1.0 3.1 0 ------- null}
+ -t 0.514 -s 2 -d 3 -p cbr -e 1000 -c 1 -i 0 -a 1 -x {1.0 3.1 0 ------- null}
- -t 0.514 -s 2 -d 3 -p cbr -e 1000 -c 1 -i 0 -a 1 -x {1.0 3.1 0 ------- null}
h -t 0.514 -s 2 -d 3 -p cbr -e 1000 -c 1 -i 0 -a 1 -x {1.0 3.1 -1 ------- null}
+ -t 0.516 -s 1 -d 2 -p cbr -e 1000 -c 1 -i 3 -a 1 -x {1.0 3.1 2 ------- null}
- -t 0.516 -s 1 -d 2 -p cbr -e 1000 -c 1 -i 3 -a 1 -x {1.0 3.1 2 ------- null}
h -t 0.516 -s 1 -d 2 -p cbr -e 1000 -c 1 -i 3 -a 1 -x {1.0 3.1 -1 ------- null}
r -t 0.522 -s 1 -d 2 -p cbr -e 1000 -c 1 -i 2 -a 1 -x {1.0 3.1 1 ------- null}
+ -t 0.522 -s 2 -d 3 -p cbr -e 1000 -c 1 -i 2 -a 1 -x {1.0 3.1 1 ------- null}
- -t 0.522 -s 2 -d 3 -p cbr -e 1000 -c 1 -i 2 -a 1 -x {1.0 3.1 1 ------- null}
h -t 0.522 -s 2 -d 3 -p cbr -e 1000 -c 1 -i 2 -a 1 -x {1.0 3.1 -1 ------- null}
+ -t 0.524 -s 1 -d 2 -p cbr -e 1000 -c 1 -i 4 -a 1 -x {1.0 3.1 3 ------- null}
- -t 0.524 -s 1 -d 2 -p cbr -e 1000 -c 1 -i 4 -a 1 -x {1.0 3.1 3 ------- null}
h -t 0.524 -s 1 -d 2 -p cbr -e 1000 -c 1 -i 4 -a 1 -x {1.0 3.1 -1 ------- null}
r -t 0.53 -s 1 -d 2 -p cbr -e 1000 -c 1 -i 3 -a 1 -x {1.0 3.1 2 ------- null}
+ -t 0.53 -s 2 -d 3 -p cbr -e 1000 -c 1 -i 3 -a 1 -x {1.0 3.1 2 ------- null}
- -t 0.53 -s 2 -d 3 -p cbr -e 1000 -c 1 -i 3 -a 1 -x {1.0 3.1 2 ------- null}
h -t 0.53 -s 2 -d 3 -p cbr -e 1000 -c 1 -i 3 -a 1 -x {1.0 3.1 -1 ------- null}
r -t 0.530348235294118 -s 2 -d 3 -p tcp -e 40 -c 2 -i 1 -a 2 -x {0.0 3.0 0 ------- null}
+ -t 0.530348235294118 -s 3 -d 2 -p ack -e 40 -c 2 -i 5 -a 2 -x {3.0 0.0 0 ------- null}
- -t 0.530348235294118 -s 3 -d 2 -p ack -e 40 -c 2 -i 5 -a 2 -x {3.0 0.0 0 ------- null}
h -t 0.530348235294118 -s 3 -d 2 -p ack -e 40 -c 2 -i 5 -a 2 -x {3.0 0.0 -1 ------- null}
+ -t 0.532 -s 1 -d 2 -p cbr -e 1000 -c 1 -i 6 -a 1 -x {1.0 3.1 4 ------- null}
- -t 0.532 -s 1 -d 2 -p cbr -e 1000 -c 1 -i 6 -a 1 -x {1.0 3.1 4 ------- null}
h -t 0.532 -s 1 -d 2 -p cbr -e 1000 -c 1 -i 6 -a 1 -x {1.0 3.1 -1 ------- null}
r -t 0.538 -s 1 -d 2 -p cbr -e 1000 -c 1 -i 4 -a 1 -x {1.0 3.1 3 ------- null}
+ -t 0.538 -s 2 -d 3 -p cbr -e 1000 -c 1 -i 4 -a 1 -x {1.0 3.1 3 ------- null}
- -t 0.538 -s 2 -d 3 -p cbr -e 1000 -c 1 -i 4 -a 1 -x {1.0 3.1 3 ------- null}
h -t 0.538 -s 2 -d 3 -p cbr -e 1000 -c 1 -i 4 -a 1 -x {1.0 3.1 -1 ------- null}
r -t 0.538705882352941 -s 2 -d 3 -p cbr -e 1000 -c 1 -i 0 -a 1 -x {1.0 3.1 0 ------- null}
+ -t 0.54 -s 1 -d 2 -p cbr -e 1000 -c 1 -i 7 -a 1 -x {1.0 3.1 5 ------- null}
- -t 0.54 -s 1 -d 2 -p cbr -e 1000 -c 1 -i 7 -a 1 -x {1.0 3.1 5 ------- null}
h -t 0.54 -s 1 -d 2 -p cbr -e 1000 -c 1 -i 7 -a 1 -x {1.0 3.1 -1 ------- null}
r -t 0.546 -s 1 -d 2 -p cbr -e 1000 -c 1 -i 6 -a 1 -x {1.0 3.1 4 ------- null}
+ -t 0.546 -s 2 -d 3 -p cbr -e 1000 -c 1 -i 6 -a 1 -x {1.0 3.1 4 ------- null}
- -t 0.546 -s 2 -d 3 -p cbr -e 1000 -c 1 -i 6 -a 1 -x {1.0 3.1 4 ------- null}
h -t 0.546 -s 2 -d 3 -p cbr -e 1000 -c 1 -i 6 -a 1 -x {1.0 3.1 -1 ------- null}
r -t 0.546705882352941 -s 2 -d 3 -p cbr -e 1000 -c 1 -i 2 -a 1 -x {1.0 3.1 1 ------- null}
+ -t 0.548 -s 1 -d 2 -p cbr -e 1000 -c 1 -i 8 -a 1 -x {1.0 3.1 6 ------- null}
- -t 0.548 -s 1 -d 2 -p cbr -e 1000 -c 1 -i 8 -a 1 -x {1.0 3.1 6 ------- null}
h -t 0.548 -s 1 -d 2 -p cbr -e 1000 -c 1 -i 8 -a 1 -x {1.0 3.1 -1 ------- null}
r -t 0.550536470588235 -s 3 -d 2 -p ack -e 40 -c 2 -i 5 -a 2 -x {3.0 0.0 0 ------- null}
+ -t 0.550536470588235 -s 2 -d 0 -p ack -e 40 -c 2 -i 5 -a 2 -x {3.0 0.0 0 ------- null}
- -t 0.550536470588235 -s 2 -d 0 -p ack -e 40 -c 2 -i 5 -a 2 -x {3.0 0.0 0 ------- null}
h -t 0.550536470588235 -s 2 -d 0 -p ack -e 40 -c 2 -i 5 -a 2 -x {3.0 0.0 -1 ------- null}
r -t 0.554 -s 1 -d 2 -p cbr -e 1000 -c 1 -i 7 -a 1 -x {1.0 3.1 5 ------- null}
+ -t 0.554 -s 2 -d 3 -p cbr -e 1000 -c 1 -i 7 -a 1 -x {1.0 3.1 5 ------- null}
- -t 0.554 -s 2 -d 3 -p cbr -e 1000 -c 1 -i 7 -a 1 -x {1.0 3.1 5 ------- null}
h -t 0.554 -s 2 -d 3 -p cbr -e 1000 -c 1 -i 7 -a 1 -x {1.0 3.1 -1 ------- null}
r -t 0.554705882352941 -s 2 -d 3 -p cbr -e 1000 -c 1 -i 3 -a 1 -x {1.0 3.1 2 ------- null}
+ -t 0.556 -s 1 -d 2 -p cbr -e 1000 -c 1 -i 9 -a 1 -x {1.0 3.1 7 ------- null}
- -t 0.556 -s 1 -d 2 -p cbr -e 1000 -c 1 -i 9 -a 1 -x {1.0 3.1 7 ------- null}
h -t 0.556 -s 1 -d 2 -p cbr -e 1000 -c 1 -i 9 -a 1 -x {1.0 3.1 -1 ------- null}
r -t 0.560696470588235 -s 2 -d 0 -p ack -e 40 -c 2 -i 5 -a 2 -x {3.0 0.0 0 ------- null}
+ -t 0.560696470588235 -s 0 -d 2 -p tcp -e 1040 -c 2 -i 10 -a 2 -x {0.0 3.0 1 ------- null}
- -t 0.560696470588235 -s 0 -d 2 -p tcp -e 1040 -c 2 -i 10 -a 2 -x {0.0 3.0 1 ------- null}
h -t 0.560696470588235 -s 0 -d 2 -p tcp -e 1040 -c 2 -i 10 -a 2 -x {0.0 3.0 -1 ------- null}
+ -t 0.560696470588235 -s 0 -d 2 -p tcp -e 1040 -c 2 -i 11 -a 2 -x {0.0 3.0 2 ------- null}
r -t 0.562 -s 1 -d 2 -p cbr -e 1000 -c 1 -i 8 -a 1 -x {1.0 3.1 6 ------- null}
+ -t 0.562 -s 2 -d 3 -p cbr -e 1000 -c 1 -i 8 -a 1 -x {1.0 3.1 6 ------- null}
- -t 0.562 -s 2 -d 3 -p cbr -e 1000 -c 1 -i 8 -a 1 -x {1.0 3.1 6 ------- null}
h -t 0.562 -s 2 -d 3 -p cbr -e 1000 -c 1 -i 8 -a 1 -x {1.0 3.1 -1 ------- null}
r -t 0.562705882352941 -s 2 -d 3 -p cbr -e 1000 -c 1 -i 4 -a 1 -x {1.0 3.1 3 ------- null}
+ -t 0.564 -s 1 -d 2 -p cbr -e 1000 -c 1 -i 12 -a 1 -x {1.0 3.1 8 ------- null}
- -t 0.564 -s 1 -d 2 -p cbr -e 1000 -c 1 -i 12 -a 1 -x {1.0 3.1 8 ------- null}
h -t 0.564 -s 1 -d 2 -p cbr -e 1000 -c 1 -i 12 -a 1 -x {1.0 3.1 -1 ------- null}
- -t 0.564856470588235 -s 0 -d 2 -p tcp -e 1040 -c 2 -i 11 -a 2 -x {0.0 3.0 2 ------- null}
h -t 0.564856470588235 -s 0 -d 2 -p tcp -e 1040 -c 2 -i 11 -a 2 -x {0.0 3.0 -1 ------- null}
r -t 0.57 -s 1 -d 2 -p cbr -e 1000 -c 1 -i 9 -a 1 -x {1.0 3.1 7 ------- null}
+ -t 0.57 -s 2 -d 3 -p cbr -e 1000 -c 1 -i 9 -a 1 -x {1.0 3.1 7 ------- null}
- -t 0.57 -s 2 -d 3 -p cbr -e 1000 -c 1 -i 9 -a 1 -x {1.0 3.1 7 ------- null}
h -t 0.57 -s 2 -d 3 -p cbr -e 1000 -c 1 -i 9 -a 1 -x {1.0 3.1 -1 ------- null}
r -t 0.570705882352941 -s 2 -d 3 -p cbr -e 1000 -c 1 -i 6 -a 1 -x {1.0 3.1 4 ------- null}
+ -t 0.572 -s 1 -d 2 -p cbr -e 1000 -c 1 -i 13 -a 1 -x {1.0 3.1 9 ------- null}
- -t 0.572 -s 1 -d 2 -p cbr -e 1000 -c 1 -i 13 -a 1 -x {1.0 3.1 9 ------- null}
h -t 0.572 -s 1 -d 2 -p cbr -e 1000 -c 1 -i 13 -a 1 -x {1.0 3.1 -1 ------- null}
r -t 0.574856470588235 -s 0 -d 2 -p tcp -e 1040 -c 2 -i 10 -a 2 -x {0.0 3.0 1 ------- null}
+ -t 0.574856470588235 -s 2 -d 3 -p tcp -e 1040 -c 2 -i 10 -a 2 -x {0.0 3.0 1 ------- null}
- -t 0.574856470588235 -s 2 -d 3 -p tcp -e 1040 -c 2 -i 10 -a 2 -x {0.0 3.0 1 ------- null}
h -t 0.574856470588235 -s 2 -d 3 -p tcp -e 1040 -c 2 -i 10 -a 2 -x {0.0 3.0 -1 ------- null}
r -t 0.578 -s 1 -d 2 -p cbr -e 1000 -c 1 -i 12 -a 1 -x {1.0 3.1 8 ------- null}
+ -t 0.578 -s 2 -d 3 -p cbr -e 1000 -c 1 -i 12 -a 1 -x {1.0 3.1 8 ------- null}
r -t 0.578705882352941 -s 2 -d 3 -p cbr -e 1000 -c 1 -i 7 -a 1 -x {1.0 3.1 5 ------- null}
r -t 0.579016470588235 -s 0 -d 2 -p tcp -e 1040 -c 2 -i 11 -a 2 -x {0.0 3.0 2 ------- null}
+ -t 0.579016470588235 -s 2 -d 3 -p tcp -e 1040 -c 2 -i 11 -a 2 -x {0.0 3.0 2 ------- null}
- -t 0.579750588235294 -s 2 -d 3 -p cbr -e 1000 -c 1 -i 12 -a 1 -x {1.0 3.1 8 ------- null}
h -t 0.579750588235294 -s 2 -d 3 -p cbr -e 1000 -c 1 -i 12 -a 1 -x {1.0 3.1 -1 ------- null}
+ -t 0.58 -s 1 -d 2 -p cbr -e 1000 -c 1 -i 14 -a 1 -x {1.0 3.1 10 ------- null}
- -t 0.58 -s 1 -d 2 -p cbr -e 1000 -c 1 -i 14 -a 1 -x {1.0 3.1 10 ------- null}
h -t 0.58 -s 1 -d 2 -p cbr -e 1000 -c 1 -i 14 -a 1 -x {1.0 3.1 -1 ------- null}
- -t 0.584456470588235 -s 2 -d 3 -p tcp -e 1040 -c 2 -i 11 -a 2 -x {0.0 3.0 2 ------- null}
h -t 0.584456470588235 -s 2 -d 3 -p tcp -e 1040 -c 2 -i 11 -a 2 -x {0.0 3.0 -1 ------- null}
r -t 0.586 -s 1 -d 2 -p cbr -e 1000 -c 1 -i 13 -a 1 -x {1.0 3.1 9 ------- null}
+ -t 0.586 -s 2 -d 3 -p cbr -e 1000 -c 1 -i 13 -a 1 -x {1.0 3.1 9 ------- null}
r -t 0.586705882352941 -s 2 -d 3 -p cbr -e 1000 -c 1 -i 8 -a 1 -x {1.0 3.1 6 ------- null}
+ -t 0.588 -s 1 -d 2 -p cbr -e 1000 -c 1 -i 15 -a 1 -x {1.0 3.1 11 ------- null}
- -t 0.588 -s 1 -d 2 -p cbr -e 1000 -c 1 -i 15 -a 1 -x {1.0 3.1 11 ------- null}
h -t 0.588 -s 1 -d 2 -p cbr -e 1000 -c 1 -i 15 -a 1 -x {1.0 3.1 -1 ------- null}
- -t 0.589350588235294 -s 2 -d 3 -p cbr -e 1000 -c 1 -i 13 -a 1 -x {1.0 3.1 9 ------- null}
h -t 0.589350588235294 -s 2 -d 3 -p cbr -e 1000 -c 1 -i 13 -a 1 -x {1.0 3.1 -1 ------- null}
r -t 0.594 -s 1 -d 2 -p cbr -e 1000 -c 1 -i 14 -a 1 -x {1.0 3.1 10 ------- null}
+ -t 0.594 -s 2 -d 3 -p cbr -e 1000 -c 1 -i 14 -a 1 -x {1.0 3.1 10 ------- null}
- -t 0.594056470588235 -s 2 -d 3 -p cbr -e 1000 -c 1 -i 14 -a 1 -x {1.0 3.1 10 ------- null}
h -t 0.594056470588235 -s 2 -d 3 -p cbr -e 1000 -c 1 -i 14 -a 1 -x {1.0 3.1 -1 ------- null}
r -t 0.594705882352941 -s 2 -d 3 -p cbr -e 1000 -c 1 -i 9 -a 1 -x {1.0 3.1 7 ------- null}
+ -t 0.596 -s 1 -d 2 -p cbr -e 1000 -c 1 -i 16 -a 1 -x {1.0 3.1 12 ------- null}
- -t 0.596 -s 1 -d 2 -p cbr -e 1000 -c 1 -i 16 -a 1 -x {1.0 3.1 12 ------- null}
h -t 0.596 -s 1 -d 2 -p cbr -e 1000 -c 1 -i 16 -a 1 -x {1.0 3.1 -1 ------- null}
r -t 0.599750588235294 -s 2 -d 3 -p tcp -e 1040 -c 2 -i 10 -a 2 -x {0.0 3.0 1 ------- null}
+ -t 0.599750588235294 -s 3 -d 2 -p ack -e 40 -c 2 -i 17 -a 2 -x {3.0 0.0 1 ------- null}
- -t 0.599750588235294 -s 3 -d 2 -p ack -e 40 -c 2 -i 17 -a 2 -x {3.0 0.0 1 ------- null}
h -t 0.599750588235294 -s 3 -d 2 -p ack -e 40 -c 2 -i 17 -a 2 -x {3.0 0.0 -1 ------- null}
r -t 0.602 -s 1 -d 2 -p cbr -e 1000 -c 1 -i 15 -a 1 -x {1.0 3.1 11 ------- null}
+ -t 0.602 -s 2 -d 3 -p cbr -e 1000 -c 1 -i 15 -a 1 -x {1.0 3.1 11 ------- null}
- -t 0.602 -s 2 -d 3 -p cbr -e 1000 -c 1 -i 15 -a 1 -x {1.0 3.1 11 ------- null}
h -t 0.602 -s 2 -d 3 -p cbr -e 1000 -c 1 -i 15 -a 1 -x {1.0 3.1 -1 ------- null}
+ -t 0.604 -s 1 -d 2 -p cbr -e 1000 -c 1 -i 18 -a 1 -x {1.0 3.1 13 ------- null}
- -t 0.604 -s 1 -d 2 -p cbr -e 1000 -c 1 -i 18 -a 1 -x {1.0 3.1 13 ------- null}
h -t 0.604 -s 1 -d 2 -p cbr -e 1000 -c 1 -i 18 -a 1 -x {1.0 3.1 -1 ------- null}
r -t 0.604456470588235 -s 2 -d 3 -p cbr -e 1000 -c 1 -i 12 -a 1 -x {1.0 3.1 8 ------- null}
r -t 0.609350588235294 -s 2 -d 3 -p tcp -e 1040 -c 2 -i 11 -a 2 -x {0.0 3.0 2 ------- null}
+ -t 0.609350588235294 -s 3 -d 2 -p ack -e 40 -c 2 -i 19 -a 2 -x {3.0 0.0 2 ------- null}
- -t 0.609350588235294 -s 3 -d 2 -p ack -e 40 -c 2 -i 19 -a 2 -x {3.0 0.0 2 ------- null}
h -t 0.609350588235294 -s 3 -d 2 -p ack -e 40 -c 2 -i 19 -a 2 -x {3.0 0.0 -1 ------- null}
r -t 0.61 -s 1 -d 2 -p cbr -e 1000 -c 1 -i 16 -a 1 -x {1.0 3.1 12 ------- null}
+ -t 0.61 -s 2 -d 3 -p cbr -e 1000 -c 1 -i 16 -a 1 -x {1.0 3.1 12 ------- null}
- -t 0.61 -s 2 -d 3 -p cbr -e 1000 -c 1 -i 16 -a 1 -x {1.0 3.1 12 ------- null}
h -t 0.61 -s 2 -d 3 -p cbr -e 1000 -c 1 -i 16 -a 1 -x {1.0 3.1 -1 ------- null}
+ -t 0.612 -s 1 -d 2 -p cbr -e 1000 -c 1 -i 20 -a 1 -x {1.0 3.1 14 ------- null}
- -t 0.612 -s 1 -d 2 -p cbr -e 1000 -c 1 -i 20 -a 1 -x {1.0 3.1 14 ------- null}
h -t 0.612 -s 1 -d 2 -p cbr -e 1000 -c 1 -i 20 -a 1 -x {1.0 3.1 -1 ------- null}
r -t 0.614056470588235 -s 2 -d 3 -p cbr -e 1000 -c 1 -i 13 -a 1 -x {1.0 3.1 9 ------- null}
r -t 0.618 -s 1 -d 2 -p cbr -e 1000 -c 1 -i 18 -a 1 -x {1.0 3.1 13 ------- null}
+ -t 0.618 -s 2 -d 3 -p cbr -e 1000 -c 1 -i 18 -a 1 -x {1.0 3.1 13 ------- null}
- -t 0.618 -s 2 -d 3 -p cbr -e 1000 -c 1 -i 18 -a 1 -x {1.0 3.1 13 ------- null}
h -t 0.618 -s 2 -d 3 -p cbr -e 1000 -c 1 -i 18 -a 1 -x {1.0 3.1 -1 ------- null}
r -t 0.618762352941176 -s 2 -d 3 -p cbr -e 1000 -c 1 -i 14 -a 1 -x {1.0 3.1 10 ------- null}
r -t 0.619938823529412 -s 3 -d 2 -p ack -e 40 -c 2 -i 17 -a 2 -x {3.0 0.0 1 ------- null}
+ -t 0.619938823529412 -s 2 -d 0 -p ack -e 40 -c 2 -i 17 -a 2 -x {3.0 0.0 1 ------- null}
- -t 0.619938823529412 -s 2 -d 0 -p ack -e 40 -c 2 -i 17 -a 2 -x {3.0 0.0 1 ------- null}
h -t 0.619938823529412 -s 2 -d 0 -p ack -e 40 -c 2 -i 17 -a 2 -x {3.0 0.0 -1 ------- null}
+ -t 0.62 -s 1 -d 2 -p cbr -e 1000 -c 1 -i 21 -a 1 -x {1.0 3.1 15 ------- null}
- -t 0.62 -s 1 -d 2 -p cbr -e 1000 -c 1 -i 21 -a 1 -x {1.0 3.1 15 ------- null}
h -t 0.62 -s 1 -d 2 -p cbr -e 1000 -c 1 -i 21 -a 1 -x {1.0 3.1 -1 ------- null}
r -t 0.626 -s 1 -d 2 -p cbr -e 1000 -c 1 -i 20 -a 1 -x {1.0 3.1 14 ------- null}
+ -t 0.626 -s 2 -d 3 -p cbr -e 1000 -c 1 -i 20 -a 1 -x {1.0 3.1 14 ------- null}
- -t 0.626 -s 2 -d 3 -p cbr -e 1000 -c 1 -i 20 -a 1 -x {1.0 3.1 14 ------- null}
h -t 0.626 -s 2 -d 3 -p cbr -e 1000 -c 1 -i 20 -a 1 -x {1.0 3.1 -1 ------- null}
r -t 0.626705882352941 -s 2 -d 3 -p cbr -e 1000 -c 1 -i 15 -a 1 -x {1.0 3.1 11 ------- null}
+ -t 0.628 -s 1 -d 2 -p cbr -e 1000 -c 1 -i 22 -a 1 -x {1.0 3.1 16 ------- null}
- -t 0.628 -s 1 -d 2 -p cbr -e 1000 -c 1 -i 22 -a 1 -x {1.0 3.1 16 ------- null}
h -t 0.628 -s 1 -d 2 -p cbr -e 1000 -c 1 -i 22 -a 1 -x {1.0 3.1 -1 ------- null}
r -t 0.629538823529412 -s 3 -d 2 -p ack -e 40 -c 2 -i 19 -a 2 -x {3.0 0.0 2 ------- null}
+ -t 0.629538823529412 -s 2 -d 0 -p ack -e 40 -c 2 -i 19 -a 2 -x {3.0 0.0 2 ------- null}
- -t 0.629538823529412 -s 2 -d 0 -p ack -e 40 -c 2 -i 19 -a 2 -x {3.0 0.0 2 ------- null}
h -t 0.629538823529412 -s 2 -d 0 -p ack -e 40 -c 2 -i 19 -a 2 -x {3.0 0.0 -1 ------- null}
r -t 0.630098823529411 -s 2 -d 0 -p ack -e 40 -c 2 -i 17 -a 2 -x {3.0 0.0 1 ------- null}
+ -t 0.630098823529411 -s 0 -d 2 -p tcp -e 1040 -c 2 -i 23 -a 2 -x {0.0 3.0 3 ------- null}
- -t 0.630098823529411 -s 0 -d 2 -p tcp -e 1040 -c 2 -i 23 -a 2 -x {0.0 3.0 3 ------- null}
h -t 0.630098823529411 -s 0 -d 2 -p tcp -e 1040 -c 2 -i 23 -a 2 -x {0.0 3.0 -1 ------- null}
+ -t 0.630098823529411 -s 0 -d 2 -p tcp -e 1040 -c 2 -i 24 -a 2 -x {0.0 3.0 4 ------- null}
r -t 0.634 -s 1 -d 2 -p cbr -e 1000 -c 1 -i 21 -a 1 -x {1.0 3.1 15 ------- null}
+ -t 0.634 -s 2 -d 3 -p cbr -e 1000 -c 1 -i 21 -a 1 -x {1.0 3.1 15 ------- null}
- -t 0.634 -s 2 -d 3 -p cbr -e 1000 -c 1 -i 21 -a 1 -x {1.0 3.1 15 ------- null}
h -t 0.634 -s 2 -d 3 -p cbr -e 1000 -c 1 -i 21 -a 1 -x {1.0 3.1 -1 ------- null}
- -t 0.634258823529412 -s 0 -d 2 -p tcp -e 1040 -c 2 -i 24 -a 2 -x {0.0 3.0 4 ------- null}
h -t 0.634258823529412 -s 0 -d 2 -p tcp -e 1040 -c 2 -i 24 -a 2 -x {0.0 3.0 -1 ------- null}
r -t 0.634705882352941 -s 2 -d 3 -p cbr -e 1000 -c 1 -i 16 -a 1 -x {1.0 3.1 12 ------- null}
+ -t 0.636 -s 1 -d 2 -p cbr -e 1000 -c 1 -i 25 -a 1 -x {1.0 3.1 17 ------- null}
- -t 0.636 -s 1 -d 2 -p cbr -e 1000 -c 1 -i 25 -a 1 -x {1.0 3.1 17 ------- null}
h -t 0.636 -s 1 -d 2 -p cbr -e 1000 -c 1 -i 25 -a 1 -x {1.0 3.1 -1 ------- null}
r -t 0.639698823529412 -s 2 -d 0 -p ack -e 40 -c 2 -i 19 -a 2 -x {3.0 0.0 2 ------- null}
+ -t 0.639698823529412 -s 0 -d 2 -p tcp -e 1040 -c 2 -i 26 -a 2 -x {0.0 3.0 5 ------- null}
- -t 0.639698823529412 -s 0 -d 2 -p tcp -e 1040 -c 2 -i 26 -a 2 -x {0.0 3.0 5 ------- null}
h -t 0.639698823529412 -s 0 -d 2 -p tcp -e 1040 -c 2 -i 26 -a 2 -x {0.0 3.0 -1 ------- null}
+ -t 0.639698823529412 -s 0 -d 2 -p tcp -e 1040 -c 2 -i 27 -a 2 -x {0.0 3.0 6 ------- null}
r -t 0.642 -s 1 -d 2 -p cbr -e 1000 -c 1 -i 22 -a 1 -x {1.0 3.1 16 ------- null}
+ -t 0.642 -s 2 -d 3 -p cbr -e 1000 -c 1 -i 22 -a 1 -x {1.0 3.1 16 ------- null}
- -t 0.642 -s 2 -d 3 -p cbr -e 1000 -c 1 -i 22 -a 1 -x {1.0 3.1 16 ------- null}
h -t 0.642 -s 2 -d 3 -p cbr -e 1000 -c 1 -i 22 -a 1 -x {1.0 3.1 -1 ------- null}
r -t 0.642705882352941 -s 2 -d 3 -p cbr -e 1000 -c 1 -i 18 -a 1 -x {1.0 3.1 13 ------- null}
- -t 0.643858823529412 -s 0 -d 2 -p tcp -e 1040 -c 2 -i 27 -a 2 -x {0.0 3.0 6 ------- null}
h -t 0.643858823529412 -s 0 -d 2 -p tcp -e 1040 -c 2 -i 27 -a 2 -x {0.0 3.0 -1 ------- null}
+ -t 0.644 -s 1 -d 2 -p cbr -e 1000 -c 1 -i 28 -a 1 -x {1.0 3.1 18 ------- null}
- -t 0.644 -s 1 -d 2 -p cbr -e 1000 -c 1 -i 28 -a 1 -x {1.0 3.1 18 ------- null}
h -t 0.644 -s 1 -d 2 -p cbr -e 1000 -c 1 -i 28 -a 1 -x {1.0 3.1 -1 ------- null}
r -t 0.644258823529411 -s 0 -d 2 -p tcp -e 1040 -c 2 -i 23 -a 2 -x {0.0 3.0 3 ------- null}
+ -t 0.644258823529411 -s 2 -d 3 -p tcp -e 1040 -c 2 -i 23 -a 2 -x {0.0 3.0 3 ------- null}
- -t 0.646705882352941 -s 2 -d 3 -p tcp -e 1040 -c 2 -i 23 -a 2 -x {0.0 3.0 3 ------- null}
h -t 0.646705882352941 -s 2 -d 3 -p tcp -e 1040 -c 2 -i 23 -a 2 -x {0.0 3.0 -1 ------- null}
r -t 0.648418823529411 -s 0 -d 2 -p tcp -e 1040 -c 2 -i 24 -a 2 -x {0.0 3.0 4 ------- null}
+ -t 0.648418823529411 -s 2 -d 3 -p tcp -e 1040 -c 2 -i 24 -a 2 -x {0.0 3.0 4 ------- null}
r -t 0.65 -s 1 -d 2 -p cbr -e 1000 -c 1 -i 25 -a 1 -x {1.0 3.1 17 ------- null}
+ -t 0.65 -s 2 -d 3 -p cbr -e 1000 -c 1 -i 25 -a 1 -x {1.0 3.1 17 ------- null}
r -t 0.650705882352941 -s 2 -d 3 -p cbr -e 1000 -c 1 -i 20 -a 1 -x {1.0 3.1 14 ------- null}
- -t 0.6516 -s 2 -d 3 -p tcp -e 1040 -c 2 -i 24 -a 2 -x {0.0 3.0 4 ------- null}
h -t 0.6516 -s 2 -d 3 -p tcp -e 1040 -c 2 -i 24 -a 2 -x {0.0 3.0 -1 ------- null}
+ -t 0.652 -s 1 -d 2 -p cbr -e 1000 -c 1 -i 29 -a 1 -x {1.0 3.1 19 ------- null}
- -t 0.652 -s 1 -d 2 -p cbr -e 1000 -c 1 -i 29 -a 1 -x {1.0 3.1 19 ------- null}
h -t 0.652 -s 1 -d 2 -p cbr -e 1000 -c 1 -i 29 -a 1 -x {1.0 3.1 -1 ------- null}
r -t 0.653858823529411 -s 0 -d 2 -p tcp -e 1040 -c 2 -i 26 -a 2 -x {0.0 3.0 5 ------- null}
+ -t 0.653858823529411 -s 2 -d 3 -p tcp -e 1040 -c 2 -i 26 -a 2 -x {0.0 3.0 5 ------- null}
- -t 0.656494117647059 -s 2 -d 3 -p cbr -e 1000 -c 1 -i 25 -a 1 -x {1.0 3.1 17 ------- null}
h -t 0.656494117647059 -s 2 -d 3 -p cbr -e 1000 -c 1 -i 25 -a 1 -x {1.0 3.1 -1 ------- null}
r -t 0.658 -s 1 -d 2 -p cbr -e 1000 -c 1 -i 28 -a 1 -x {1.0 3.1 18 ------- null}
+ -t 0.658 -s 2 -d 3 -p cbr -e 1000 -c 1 -i 28 -a 1 -x {1.0 3.1 18 ------- null}
r -t 0.658018823529412 -s 0 -d 2 -p tcp -e 1040 -c 2 -i 27 -a 2 -x {0.0 3.0 6 ------- null}
+ -t 0.658018823529412 -s 2 -d 3 -p tcp -e 1040 -c 2 -i 27 -a 2 -x {0.0 3.0 6 ------- null}
r -t 0.658705882352941 -s 2 -d 3 -p cbr -e 1000 -c 1 -i 21 -a 1 -x {1.0 3.1 15 ------- null}
+ -t 0.66 -s 1 -d 2 -p cbr -e 1000 -c 1 -i 30 -a 1 -x {1.0 3.1 20 ------- null}
- -t 0.66 -s 1 -d 2 -p cbr -e 1000 -c 1 -i 30 -a 1 -x {1.0 3.1 20 ------- null}
h -t 0.66 -s 1 -d 2 -p cbr -e 1000 -c 1 -i 30 -a 1 -x {1.0 3.1 -1 ------- null}
- -t 0.6612 -s 2 -d 3 -p tcp -e 1040 -c 2 -i 26 -a 2 -x {0.0 3.0 5 ------- null}
h -t 0.6612 -s 2 -d 3 -p tcp -e 1040 -c 2 -i 26 -a 2 -x {0.0 3.0 -1 ------- null}
r -t 0.666 -s 1 -d 2 -p cbr -e 1000 -c 1 -i 29 -a 1 -x {1.0 3.1 19 ------- null}
+ -t 0.666 -s 2 -d 3 -p cbr -e 1000 -c 1 -i 29 -a 1 -x {1.0 3.1 19 ------- null}
- -t 0.666094117647059 -s 2 -d 3 -p cbr -e 1000 -c 1 -i 28 -a 1 -x {1.0 3.1 18 ------- null}
h -t 0.666094117647059 -s 2 -d 3 -p cbr -e 1000 -c 1 -i 28 -a 1 -x {1.0 3.1 -1 ------- null}
r -t 0.666705882352941 -s 2 -d 3 -p cbr -e 1000 -c 1 -i 22 -a 1 -x {1.0 3.1 16 ------- null}
+ -t 0.668 -s 1 -d 2 -p cbr -e 1000 -c 1 -i 31 -a 1 -x {1.0 3.1 21 ------- null}
- -t 0.668 -s 1 -d 2 -p cbr -e 1000 -c 1 -i 31 -a 1 -x {1.0 3.1 21 ------- null}
h -t 0.668 -s 1 -d 2 -p cbr -e 1000 -c 1 -i 31 -a 1 -x {1.0 3.1 -1 ------- null}
- -t 0.6708 -s 2 -d 3 -p tcp -e 1040 -c 2 -i 27 -a 2 -x {0.0 3.0 6 ------- null}
h -t 0.6708 -s 2 -d 3 -p tcp -e 1040 -c 2 -i 27 -a 2 -x {0.0 3.0 -1 ------- null}
r -t 0.6716 -s 2 -d 3 -p tcp -e 1040 -c 2 -i 23 -a 2 -x {0.0 3.0 3 ------- null}
+ -t 0.6716 -s 3 -d 2 -p ack -e 40 -c 2 -i 32 -a 2 -x {3.0 0.0 3 ------- null}
- -t 0.6716 -s 3 -d 2 -p ack -e 40 -c 2 -i 32 -a 2 -x {3.0 0.0 3 ------- null}
h -t 0.6716 -s 3 -d 2 -p ack -e 40 -c 2 -i 32 -a 2 -x {3.0 0.0 -1 ------- null}
r -t 0.674 -s 1 -d 2 -p cbr -e 1000 -c 1 -i 30 -a 1 -x {1.0 3.1 20 ------- null}
+ -t 0.674 -s 2 -d 3 -p cbr -e 1000 -c 1 -i 30 -a 1 -x {1.0 3.1 20 ------- null}
- -t 0.675694117647059 -s 2 -d 3 -p cbr -e 1000 -c 1 -i 29 -a 1 -x {1.0 3.1 19 ------- null}
h -t 0.675694117647059 -s 2 -d 3 -p cbr -e 1000 -c 1 -i 29 -a 1 -x {1.0 3.1 -1 ------- null}
+ -t 0.676 -s 1 -d 2 -p cbr -e 1000 -c 1 -i 33 -a 1 -x {1.0 3.1 22 ------- null}
- -t 0.676 -s 1 -d 2 -p cbr -e 1000 -c 1 -i 33 -a 1 -x {1.0 3.1 22 ------- null}
h -t 0.676 -s 1 -d 2 -p cbr -e 1000 -c 1 -i 33 -a 1 -x {1.0 3.1 -1 ------- null}
r -t 0.676494117647059 -s 2 -d 3 -p tcp -e 1040 -c 2 -i 24 -a 2 -x {0.0 3.0 4 ------- null}
+ -t 0.676494117647059 -s 3 -d 2 -p ack -e 40 -c 2 -i 34 -a 2 -x {3.0 0.0 4 ------- null}
- -t 0.676494117647059 -s 3 -d 2 -p ack -e 40 -c 2 -i 34 -a 2 -x {3.0 0.0 4 ------- null}
h -t 0.676494117647059 -s 3 -d 2 -p ack -e 40 -c 2 -i 34 -a 2 -x {3.0 0.0 -1 ------- null}
- -t 0.6804 -s 2 -d 3 -p cbr -e 1000 -c 1 -i 30 -a 1 -x {1.0 3.1 20 ------- null}
h -t 0.6804 -s 2 -d 3 -p cbr -e 1000 -c 1 -i 30 -a 1 -x {1.0 3.1 -1 ------- null}
r -t 0.6812 -s 2 -d 3 -p cbr -e 1000 -c 1 -i 25 -a 1 -x {1.0 3.1 17 ------- null}
r -t 0.682 -s 1 -d 2 -p cbr -e 1000 -c 1 -i 31 -a 1 -x {1.0 3.1 21 ------- null}
+ -t 0.682 -s 2 -d 3 -p cbr -e 1000 -c 1 -i 31 -a 1 -x {1.0 3.1 21 ------- null}
+ -t 0.684 -s 1 -d 2 -p cbr -e 1000 -c 1 -i 35 -a 1 -x {1.0 3.1 23 ------- null}
- -t 0.684 -s 1 -d 2 -p cbr -e 1000 -c 1 -i 35 -a 1 -x {1.0 3.1 23 ------- null}
h -t 0.684 -s 1 -d 2 -p cbr -e 1000 -c 1 -i 35 -a 1 -x {1.0 3.1 -1 ------- null}
- -t 0.685105882352942 -s 2 -d 3 -p cbr -e 1000 -c 1 -i 31 -a 1 -x {1.0 3.1 21 ------- null}
h -t 0.685105882352942 -s 2 -d 3 -p cbr -e 1000 -c 1 -i 31 -a 1 -x {1.0 3.1 -1 ------- null}
r -t 0.686094117647059 -s 2 -d 3 -p tcp -e 1040 -c 2 -i 26 -a 2 -x {0.0 3.0 5 ------- null}
+ -t 0.686094117647059 -s 3 -d 2 -p ack -e 40 -c 2 -i 36 -a 2 -x {3.0 0.0 5 ------- null}
- -t 0.686094117647059 -s 3 -d 2 -p ack -e 40 -c 2 -i 36 -a 2 -x {3.0 0.0 5 ------- null}
h -t 0.686094117647059 -s 3 -d 2 -p ack -e 40 -c 2 -i 36 -a 2 -x {3.0 0.0 -1 ------- null}
r -t 0.69 -s 1 -d 2 -p cbr -e 1000 -c 1 -i 33 -a 1 -x {1.0 3.1 22 ------- null}
+ -t 0.69 -s 2 -d 3 -p cbr -e 1000 -c 1 -i 33 -a 1 -x {1.0 3.1 22 ------- null}
- -t 0.69 -s 2 -d 3 -p cbr -e 1000 -c 1 -i 33 -a 1 -x {1.0 3.1 22 ------- null}
h -t 0.69 -s 2 -d 3 -p cbr -e 1000 -c 1 -i 33 -a 1 -x {1.0 3.1 -1 ------- null}
r -t 0.6908 -s 2 -d 3 -p cbr -e 1000 -c 1 -i 28 -a 1 -x {1.0 3.1 18 ------- null}
r -t 0.691788235294118 -s 3 -d 2 -p ack -e 40 -c 2 -i 32 -a 2 -x {3.0 0.0 3 ------- null}
+ -t 0.691788235294118 -s 2 -d 0 -p ack -e 40 -c 2 -i 32 -a 2 -x {3.0 0.0 3 ------- null}
- -t 0.691788235294118 -s 2 -d 0 -p ack -e 40 -c 2 -i 32 -a 2 -x {3.0 0.0 3 ------- null}
h -t 0.691788235294118 -s 2 -d 0 -p ack -e 40 -c 2 -i 32 -a 2 -x {3.0 0.0 -1 ------- null}
+ -t 0.692 -s 1 -d 2 -p cbr -e 1000 -c 1 -i 37 -a 1 -x {1.0 3.1 24 ------- null}
- -t 0.692 -s 1 -d 2 -p cbr -e 1000 -c 1 -i 37 -a 1 -x {1.0 3.1 24 ------- null}
h -t 0.692 -s 1 -d 2 -p cbr -e 1000 -c 1 -i 37 -a 1 -x {1.0 3.1 -1 ------- null}
r -t 0.695694117647059 -s 2 -d 3 -p tcp -e 1040 -c 2 -i 27 -a 2 -x {0.0 3.0 6 ------- null}
+ -t 0.695694117647059 -s 3 -d 2 -p ack -e 40 -c 2 -i 38 -a 2 -x {3.0 0.0 6 ------- null}
- -t 0.695694117647059 -s 3 -d 2 -p ack -e 40 -c 2 -i 38 -a 2 -x {3.0 0.0 6 ------- null}
h -t 0.695694117647059 -s 3 -d 2 -p ack -e 40 -c 2 -i 38 -a 2 -x {3.0 0.0 -1 ------- null}
r -t 0.696682352941177 -s 3 -d 2 -p ack -e 40 -c 2 -i 34 -a 2 -x {3.0 0.0 4 ------- null}
+ -t 0.696682352941177 -s 2 -d 0 -p ack -e 40 -c 2 -i 34 -a 2 -x {3.0 0.0 4 ------- null}
- -t 0.696682352941177 -s 2 -d 0 -p ack -e 40 -c 2 -i 34 -a 2 -x {3.0 0.0 4 ------- null}
h -t 0.696682352941177 -s 2 -d 0 -p ack -e 40 -c 2 -i 34 -a 2 -x {3.0 0.0 -1 ------- null}
r -t 0.698 -s 1 -d 2 -p cbr -e 1000 -c 1 -i 35 -a 1 -x {1.0 3.1 23 ------- null}
+ -t 0.698 -s 2 -d 3 -p cbr -e 1000 -c 1 -i 35 -a 1 -x {1.0 3.1 23 ------- null}
- -t 0.698 -s 2 -d 3 -p cbr -e 1000 -c 1 -i 35 -a 1 -x {1.0 3.1 23 ------- null}
h -t 0.698 -s 2 -d 3 -p cbr -e 1000 -c 1 -i 35 -a 1 -x {1.0 3.1 -1 ------- null}
+ -t 0.7 -s 1 -d 2 -p cbr -e 1000 -c 1 -i 39 -a 1 -x {1.0 3.1 25 ------- null}
- -t 0.7 -s 1 -d 2 -p cbr -e 1000 -c 1 -i 39 -a 1 -x {1.0 3.1 25 ------- null}
h -t 0.7 -s 1 -d 2 -p cbr -e 1000 -c 1 -i 39 -a 1 -x {1.0 3.1 -1 ------- null}
r -t 0.7004 -s 2 -d 3 -p cbr -e 1000 -c 1 -i 29 -a 1 -x {1.0 3.1 19 ------- null}
r -t 0.701948235294118 -s 2 -d 0 -p ack -e 40 -c 2 -i 32 -a 2 -x {3.0 0.0 3 ------- null}
+ -t 0.701948235294118 -s 0 -d 2 -p tcp -e 1040 -c 2 -i 40 -a 2 -x {0.0 3.0 7 ------- null}
- -t 0.701948235294118 -s 0 -d 2 -p tcp -e 1040 -c 2 -i 40 -a 2 -x {0.0 3.0 7 ------- null}
h -t 0.701948235294118 -s 0 -d 2 -p tcp -e 1040 -c 2 -i 40 -a 2 -x {0.0 3.0 -1 ------- null}
+ -t 0.701948235294118 -s 0 -d 2 -p tcp -e 1040 -c 2 -i 41 -a 2 -x {0.0 3.0 8 ------- null}
r -t 0.705105882352941 -s 2 -d 3 -p cbr -e 1000 -c 1 -i 30 -a 1 -x {1.0 3.1 20 ------- null}
r -t 0.706 -s 1 -d 2 -p cbr -e 1000 -c 1 -i 37 -a 1 -x {1.0 3.1 24 ------- null}
+ -t 0.706 -s 2 -d 3 -p cbr -e 1000 -c 1 -i 37 -a 1 -x {1.0 3.1 24 ------- null}
- -t 0.706 -s 2 -d 3 -p cbr -e 1000 -c 1 -i 37 -a 1 -x {1.0 3.1 24 ------- null}
h -t 0.706 -s 2 -d 3 -p cbr -e 1000 -c 1 -i 37 -a 1 -x {1.0 3.1 -1 ------- null}
- -t 0.706108235294118 -s 0 -d 2 -p tcp -e 1040 -c 2 -i 41 -a 2 -x {0.0 3.0 8 ------- null}
h -t 0.706108235294118 -s 0 -d 2 -p tcp -e 1040 -c 2 -i 41 -a 2 -x {0.0 3.0 -1 ------- null}
r -t 0.706282352941177 -s 3 -d 2 -p ack -e 40 -c 2 -i 36 -a 2 -x {3.0 0.0 5 ------- null}
+ -t 0.706282352941177 -s 2 -d 0 -p ack -e 40 -c 2 -i 36 -a 2 -x {3.0 0.0 5 ------- null}
- -t 0.706282352941177 -s 2 -d 0 -p ack -e 40 -c 2 -i 36 -a 2 -x {3.0 0.0 5 ------- null}
h -t 0.706282352941177 -s 2 -d 0 -p ack -e 40 -c 2 -i 36 -a 2 -x {3.0 0.0 -1 ------- null}
r -t 0.706842352941177 -s 2 -d 0 -p ack -e 40 -c 2 -i 34 -a 2 -x {3.0 0.0 4 ------- null}
+ -t 0.706842352941177 -s 0 -d 2 -p tcp -e 1040 -c 2 -i 42 -a 2 -x {0.0 3.0 9 ------- null}
+ -t 0.706842352941177 -s 0 -d 2 -p tcp -e 1040 -c 2 -i 43 -a 2 -x {0.0 3.0 10 ------- null}
+ -t 0.708 -s 1 -d 2 -p cbr -e 1000 -c 1 -i 44 -a 1 -x {1.0 3.1 26 ------- null}
- -t 0.708 -s 1 -d 2 -p cbr -e 1000 -c 1 -i 44 -a 1 -x {1.0 3.1 26 ------- null}
h -t 0.708 -s 1 -d 2 -p cbr -e 1000 -c 1 -i 44 -a 1 -x {1.0 3.1 -1 ------- null}
r -t 0.709811764705883 -s 2 -d 3 -p cbr -e 1000 -c 1 -i 31 -a 1 -x {1.0 3.1 21 ------- null}
- -t 0.710268235294118 -s 0 -d 2 -p tcp -e 1040 -c 2 -i 42 -a 2 -x {0.0 3.0 9 ------- null}
h -t 0.710268235294118 -s 0 -d 2 -p tcp -e 1040 -c 2 -i 42 -a 2 -x {0.0 3.0 -1 ------- null}
r -t 0.714 -s 1 -d 2 -p cbr -e 1000 -c 1 -i 39 -a 1 -x {1.0 3.1 25 ------- null}
+ -t 0.714 -s 2 -d 3 -p cbr -e 1000 -c 1 -i 39 -a 1 -x {1.0 3.1 25 ------- null}
- -t 0.714 -s 2 -d 3 -p cbr -e 1000 -c 1 -i 39 -a 1 -x {1.0 3.1 25 ------- null}
h -t 0.714 -s 2 -d 3 -p cbr -e 1000 -c 1 -i 39 -a 1 -x {1.0 3.1 -1 ------- null}
- -t 0.714428235294118 -s 0 -d 2 -p tcp -e 1040 -c 2 -i 43 -a 2 -x {0.0 3.0 10 ------- null}
h -t 0.714428235294118 -s 0 -d 2 -p tcp -e 1040 -c 2 -i 43 -a 2 -x {0.0 3.0 -1 ------- null}
r -t 0.714705882352941 -s 2 -d 3 -p cbr -e 1000 -c 1 -i 33 -a 1 -x {1.0 3.1 22 ------- null}
r -t 0.715882352941177 -s 3 -d 2 -p ack -e 40 -c 2 -i 38 -a 2 -x {3.0 0.0 6 ------- null}
+ -t 0.715882352941177 -s 2 -d 0 -p ack -e 40 -c 2 -i 38 -a 2 -x {3.0 0.0 6 ------- null}
- -t 0.715882352941177 -s 2 -d 0 -p ack -e 40 -c 2 -i 38 -a 2 -x {3.0 0.0 6 ------- null}
h -t 0.715882352941177 -s 2 -d 0 -p ack -e 40 -c 2 -i 38 -a 2 -x {3.0 0.0 -1 ------- null}
+ -t 0.716 -s 1 -d 2 -p cbr -e 1000 -c 1 -i 45 -a 1 -x {1.0 3.1 27 ------- null}
- -t 0.716 -s 1 -d 2 -p cbr -e 1000 -c 1 -i 45 -a 1 -x {1.0 3.1 27 ------- null}
h -t 0.716 -s 1 -d 2 -p cbr -e 1000 -c 1 -i 45 -a 1 -x {1.0 3.1 -1 ------- null}
r -t 0.716108235294118 -s 0 -d 2 -p tcp -e 1040 -c 2 -i 40 -a 2 -x {0.0 3.0 7 ------- null}
+ -t 0.716108235294118 -s 2 -d 3 -p tcp -e 1040 -c 2 -i 40 -a 2 -x {0.0 3.0 7 ------- null}
r -t 0.716442352941177 -s 2 -d 0 -p ack -e 40 -c 2 -i 36 -a 2 -x {3.0 0.0 5 ------- null}
+ -t 0.716442352941177 -s 0 -d 2 -p tcp -e 1040 -c 2 -i 46 -a 2 -x {0.0 3.0 11 ------- null}
+ -t 0.716442352941177 -s 0 -d 2 -p tcp -e 1040 -c 2 -i 47 -a 2 -x {0.0 3.0 12 ------- null}
- -t 0.718588235294118 -s 0 -d 2 -p tcp -e 1040 -c 2 -i 46 -a 2 -x {0.0 3.0 11 ------- null}
h -t 0.718588235294118 -s 0 -d 2 -p tcp -e 1040 -c 2 -i 46 -a 2 -x {0.0 3.0 -1 ------- null}
- -t 0.718705882352941 -s 2 -d 3 -p tcp -e 1040 -c 2 -i 40 -a 2 -x {0.0 3.0 7 ------- null}
h -t 0.718705882352941 -s 2 -d 3 -p tcp -e 1040 -c 2 -i 40 -a 2 -x {0.0 3.0 -1 ------- null}
r -t 0.720268235294118 -s 0 -d 2 -p tcp -e 1040 -c 2 -i 41 -a 2 -x {0.0 3.0 8 ------- null}
+ -t 0.720268235294118 -s 2 -d 3 -p tcp -e 1040 -c 2 -i 41 -a 2 -x {0.0 3.0 8 ------- null}
r -t 0.722 -s 1 -d 2 -p cbr -e 1000 -c 1 -i 44 -a 1 -x {1.0 3.1 26 ------- null}